 vasp.5.4.4.18Apr17-6-g9f103f2a35 (build Sep 10 2024 21:01:58) complex           
 executed on             LinuxGNU date 2025.04.14  14:33:31
 running on   40 total cores
 distrk:  each k-point on   40 cores,    1 groups
 distr:  one band on NCORES_PER_BAND=   4 cores,   10 groups


--------------------------------------------------------------------------------------------------------


 INCAR:
 POTCAR:    PAW_PBE C 08Apr2002                   
 POTCAR:    PAW_PBE H 15Jun2001                   
 POTCAR:    PAW_PBE Li 17Jan2003                  
 POTCAR:    PAW_PBE C 08Apr2002                   
   SHA256 =  253f7b50bb8d59471dbedb8285d89021f4a42ed1a2c5d38a03a736e69125dd95 C/
   COPYR  = (c) Copyright 08Apr2002 Georg Kresse                                
   COPYR  = This file is part of the software VASP. Any use, copying, and all ot
   COPYR  = If you do not have a valid VASP license, you may not use, copy or di
   VRHFIN =C: s2p2                                                              
   LEXCH  = PE                                                                  
   EATOM  =   147.1560 eV,   10.8157 Ry                                         
                                                                                
   TITEL  = PAW_PBE C 08Apr2002                                                 
   LULTRA =        F    use ultrasoft PP ?                                      
   IUNSCR =        1    unscreen: 0-lin 1-nonlin 2-no                           
   RPACOR =    1.200    partial core radius                                     
   POMASS =   12.011; ZVAL   =    4.000    mass and valenz                      
   RCORE  =    1.500    outmost cutoff radius                                   
   RWIGS  =    1.630; RWIGS  =    0.863    wigner-seitz radius (au A)           
   ENMAX  =  400.000; ENMIN  =  300.000 eV                                      
   ICORE  =        2    local potential                                         
   LCOR   =        T    correct aug charges                                     
   LPAW   =        T    paw PP                                                  
   EAUG   =  644.873                                                            
   DEXC   =    0.000                                                            
   RMAX   =    1.529    core radius for proj-oper                               
   RAUG   =    1.300    factor for augmentation sphere                          
   RDEP   =    1.501    radius for radial grids                                 
   RDEPT  =    1.300    core radius for aug-charge                              
                                                                                
   Atomic configuration                                                         
    4 entries                                                                   
     n  l   j            E        occ.                                          
     1  0  0.50      -273.3789   2.0000                                         
     2  0  0.50       -13.7508   2.0000                                         
     2  1  0.50        -5.2854   2.0000                                         
     3  2  1.50        -5.4423   0.0000                                         
   Description                                                                  
     l       E           TYP  RCUT    TYP  RCUT                                 
     0    -13.7508458     23  1.200                                             
     0     -8.2022199     23  1.200                                             
     1     -5.2854383     23  1.500                                             
     1     34.0145650     23  1.500                                             
     2     -5.4423304      7  1.500                                             
  local pseudopotential read in
  partial core-charges read in
  partial kinetic energy density read in
  atomic valenz-charges read in
  non local Contribution for L=           0  read in
    real space projection operators read in
  non local Contribution for L=           0  read in
    real space projection operators read in
  non local Contribution for L=           1  read in
    real space projection operators read in
  non local Contribution for L=           1  read in
    real space projection operators read in
    PAW grid and wavefunctions read in

   number of l-projection  operators is LMAX  =           4
   number of lm-projection operators is LMMAX =           8

 POTCAR:    PAW_PBE H 15Jun2001                   
   SHA256 =  030f79b5d3ab3cf0e668861823c8fb652ff669f3e15e46930bd03bfd63a607b6 H/
   COPYR  = (c) Copyright 15Jun2001 Georg Kresse                                
   COPYR  = This file is part of the software VASP. Any use, copying, and all ot
   COPYR  = If you do not have a valid VASP license, you may not use, copy or di
   VRHFIN =H: ultrasoft test                                                    
   LEXCH  = PE                                                                  
   EATOM  =    12.4884 eV,    0.9179 Ry                                         
                                                                                
   TITEL  = PAW_PBE H 15Jun2001                                                 
   LULTRA =        F    use ultrasoft PP ?                                      
   IUNSCR =        0    unscreen: 0-lin 1-nonlin 2-no                           
   RPACOR =    0.000    partial core radius                                     
   POMASS =    1.000; ZVAL   =    1.000    mass and valenz                      
   RCORE  =    1.100    outmost cutoff radius                                   
   RWIGS  =    0.700; RWIGS  =    0.370    wigner-seitz radius (au A)           
   ENMAX  =  250.000; ENMIN  =  200.000 eV                                      
   RCLOC  =    0.701    cutoff for local pot                                    
   LCOR   =        T    correct aug charges                                     
   LPAW   =        T    paw PP                                                  
   EAUG   =  400.000                                                            
   RMAX   =    1.123    core radius for proj-oper                               
   RAUG   =    1.200    factor for augmentation sphere                          
   RDEP   =    1.112    radius for radial grids                                 
   RDEPT  =    0.926    core radius for aug-charge                              
                                                                                
   Atomic configuration                                                         
    2 entries                                                                   
     n  l   j            E        occ.                                          
     1  0  0.50        -6.4927   1.0000                                         
     2  1  0.50        -3.4015   0.0000                                         
   Description                                                                  
     l       E           TYP  RCUT    TYP  RCUT                                 
     0     -6.4927494     23  1.100                                             
     0      6.8029130     23  1.100                                             
     1     -4.0817478     23  1.100                                             
  local pseudopotential read in
  atomic valenz-charges read in
  non local Contribution for L=           0  read in
    real space projection operators read in
  non local Contribution for L=           0  read in
    real space projection operators read in
  non local Contribution for L=           1  read in
    real space projection operators read in
    PAW grid and wavefunctions read in

   number of l-projection  operators is LMAX  =           3
   number of lm-projection operators is LMMAX =           5

 POTCAR:    PAW_PBE Li 17Jan2003                  
   SHA256 =  3d9d9bfd1dd25b20a3b919cb3191e6ef627605783dc2e149b9290ff31c32aa6e Li
   COPYR  = (c) Copyright 17Jan2003 Georg Kresse                                
   COPYR  = This file is part of the software VASP. Any use, copying, and all ot
   COPYR  = If you do not have a valid VASP license, you may not use, copy or di
   VRHFIN =Li: s1p0                                                             
   LEXCH  = PE                                                                  
   EATOM  =     5.3001 eV,    0.3895 Ry                                         
                                                                                
   TITEL  = PAW_PBE Li 17Jan2003                                                
   LULTRA =        F    use ultrasoft PP ?                                      
   IUNSCR =        1    unscreen: 0-lin 1-nonlin 2-no                           
   RPACOR =    1.500    partial core radius                                     
   POMASS =    7.010; ZVAL   =    1.000    mass and valenz                      
   RCORE  =    2.050    outmost cutoff radius                                   
   RWIGS  =    2.600; RWIGS  =    1.376    wigner-seitz radius (au A)           
   ENMAX  =  140.000; ENMIN  =  100.000 eV                                      
   ICORE  =        2    local potential                                         
   LCOR   =        T    correct aug charges                                     
   LPAW   =        T    paw PP                                                  
   EAUG   =  331.638                                                            
   DEXC   =    0.000                                                            
   RMAX   =    2.098    core radius for proj-oper                               
   RAUG   =    1.300    factor for augmentation sphere                          
   RDEP   =    2.094    radius for radial grids                                 
   RDEPT  =    1.810    core radius for aug-charge                              
                                                                                
   Atomic configuration                                                         
    4 entries                                                                   
     n  l   j            E        occ.                                          
     1  0  0.50       -51.8549   2.0000                                         
     2  0  0.50        -2.8742   1.0000                                         
     2  1  0.50        -1.3606   0.0000                                         
     3  2  1.50        -1.3606   0.0000                                         
   Description                                                                  
     l       E           TYP  RCUT    TYP  RCUT                                 
     0     -2.8742052     23  2.050                                             
     0     27.2116520     23  2.050                                             
     1     -1.3605826     23  2.050                                             
     2     -1.3605826     23  2.050                                             
  local pseudopotential read in
  partial core-charges read in
  partial kinetic energy density read in
  atomic valenz-charges read in
  non local Contribution for L=           0  read in
    real space projection operators read in
  non local Contribution for L=           0  read in
    real space projection operators read in
  non local Contribution for L=           1  read in
    real space projection operators read in
    PAW grid and wavefunctions read in

   number of l-projection  operators is LMAX  =           3
   number of lm-projection operators is LMMAX =           5

 Optimization of the real space projectors (new method)

 maximal supplied QI-value         = 25.13
 optimisation between [QCUT,QGAM] = [ 10.05, 20.36] = [ 28.30,116.06] Ry 
 Optimized for a Real-space Cutoff    1.30 Angstroem

   l    n(q)    QCUT    max X(q) W(low)/X(q) W(high)/X(q)  e(spline) 
   0      8    10.053   115.676    0.49E-03    0.72E-03    0.18E-06
   0      8    10.053    87.132    0.49E-03    0.71E-03    0.18E-06
   1      7    10.053     4.429    0.32E-03    0.31E-03    0.18E-06
   1      7    10.053     2.733    0.23E-03    0.19E-03    0.20E-06
 Optimization of the real space projectors (new method)

 maximal supplied QI-value         = 34.20
 optimisation between [QCUT,QGAM] = [  9.92, 20.18] = [ 27.55,114.04] Ry 
 Optimized for a Real-space Cutoff    1.26 Angstroem

   l    n(q)    QCUT    max X(q) W(low)/X(q) W(high)/X(q)  e(spline) 
   0      8     9.919    19.460    0.50E-03    0.23E-03    0.29E-06
   0      8     9.919    12.209    0.48E-03    0.23E-03    0.28E-06
   1      7     9.919     4.655    0.17E-03    0.75E-03    0.30E-06
 Optimization of the real space projectors (new method)

 maximal supplied QI-value         = 18.33
 optimisation between [QCUT,QGAM] = [ 10.08, 20.35] = [ 28.46,115.93] Ry 
 Optimized for a Real-space Cutoff    1.16 Angstroem

   l    n(q)    QCUT    max X(q) W(low)/X(q) W(high)/X(q)  e(spline) 
   0      7    10.082    33.825    0.44E-03    0.14E-03    0.78E-07
   0      7    10.082     8.944    0.33E-03    0.12E-03    0.56E-07
   1      6    10.082     4.214    0.33E-03    0.37E-03    0.39E-07
  PAW_PBE C 08Apr2002                   :
 energy of atom  1       EATOM= -147.1560
 kinetic energy error for atom=    0.0288 (will be added to EATOM!!)
  PAW_PBE H 15Jun2001                   :
 energy of atom  2       EATOM=  -12.4884
 kinetic energy error for atom=    0.0098 (will be added to EATOM!!)
  PAW_PBE Li 17Jan2003                  :
 energy of atom  3       EATOM=   -5.3001
 kinetic energy error for atom=    0.0000 (will be added to EATOM!!)


 POSCAR: C4                                      
  positions in direct lattice
  velocities in cartesian coordinates
 exchange correlation table for  LEXCH =        8
   RHO(1)=    0.500       N(1)  =     2000
   RHO(2)=  100.500       N(2)  =     4000

 VTST: version 3.2, (02/03/18)

 CHAIN: initializing optimizer
 
 OPT: Using VASP Conjugate-Gradient optimizer
 CHAIN: Read ICHAIN            0

 POSCAR: C4                                      
  positions in direct lattice
  velocities in cartesian coordinates



--------------------------------------------------------------------------------------------------------


 ion  position               nearest neighbor table
   1  0.500  0.833  0.437-  56 1.42  64 1.42  49 1.43
   2  0.731  0.833  0.563- 112 1.09  90 1.40  74 1.40
   3  0.384  0.833  0.436-  53 1.42  61 1.42  51 1.43
   4  0.615  0.833  0.437-  54 1.42  62 1.42  52 1.43
   5  0.442  0.667  0.437-  49 1.42  65 1.42  53 1.43
   6  0.673  0.667  0.437-  50 1.42  66 1.42  54 1.43
   7  0.327  0.667  0.436-  51 1.42  67 1.42  55 1.44
   8  0.557  0.667  0.437-  52 1.42  68 1.42  56 1.43
   9  0.500  0.167  0.437-  72 1.42  64 1.42  57 1.43
  10  0.731  0.167  0.563- 114 1.09  74 1.40  82 1.40
  11  0.384  0.167  0.436-  69 1.42  61 1.42  59 1.43
  12  0.615  0.167  0.437-  70 1.42  62 1.42  60 1.43
  13  0.442  0.000  0.436-  49 1.42  57 1.42  61 1.43
  14  0.673  0.000  0.437-  50 1.42  58 1.42  62 1.43
  15  0.327  0.000  0.436-  51 1.42  59 1.42  63 1.44
  16  0.557  0.000  0.437-  52 1.42  60 1.42  64 1.43
  17  0.500  0.500  0.437-  72 1.42  56 1.42  65 1.43
  18  0.731  0.500  0.563- 113 1.09  82 1.40  90 1.40
  19  0.384  0.500  0.436-  69 1.42  53 1.42  67 1.43
  20  0.615  0.500  0.437-  70 1.42  54 1.42  68 1.43
  21  0.442  0.333  0.437-  57 1.42  65 1.42  69 1.43
  22  0.673  0.333  0.437-  58 1.42  66 1.42  70 1.43
  23  0.327  0.333  0.436-  59 1.42  67 1.42  71 1.44
  24  0.557  0.333  0.437-  60 1.42  68 1.42  72 1.43
  25  0.269  0.833  0.437- 109 1.09  55 1.40  63 1.40
  26  0.500  0.833  0.563-  89 1.42  73 1.42  80 1.43
  27  0.385  0.833  0.563-  75 1.42  91 1.42  77 1.43
  28  0.616  0.833  0.564-  92 1.42  76 1.42  78 1.43
  29  0.443  0.667  0.563-  77 1.42  93 1.42  89 1.43
  30  0.673  0.667  0.564-  78 1.42  94 1.42  90 1.44
  31  0.327  0.667  0.564-  79 1.42  95 1.42  91 1.43
  32  0.558  0.667  0.563-  80 1.42  96 1.42  92 1.43
  33  0.269  0.167  0.437- 111 1.09  71 1.40  63 1.40
  34  0.500  0.167  0.563-  81 1.42  73 1.42  88 1.43
  35  0.385  0.167  0.563-  83 1.42  75 1.42  85 1.43
  36  0.616  0.167  0.564-  84 1.42  76 1.42  86 1.43
  37  0.443  1.000  0.563-  85 1.42  77 1.42  73 1.43
  38  0.673  1.000  0.564-  78 1.42  86 1.42  74 1.44
  39  0.327  1.000  0.564-  79 1.42  87 1.42  75 1.43
  40  0.558  1.000  0.563-  88 1.42  80 1.42  76 1.43
  41  0.269  0.500  0.437- 110 1.09  55 1.40  71 1.40
  42  0.500  0.500  0.563-  81 1.42  89 1.42  96 1.43
  43  0.385  0.500  0.563-  83 1.42  91 1.42  93 1.43
  44  0.616  0.500  0.564-  92 1.42  84 1.42  94 1.43
  45  0.443  0.333  0.563-  85 1.42  93 1.42  81 1.43
  46  0.673  0.333  0.564-  86 1.42  94 1.42  82 1.44
  47  0.327  0.333  0.564-  87 1.42  95 1.42  83 1.43
  48  0.558  0.333  0.563-  88 1.42  96 1.42  84 1.43
  49  0.461  0.833  0.437-   5 1.42  13 1.42   1 1.43
  50  0.692  0.833  0.436-   6 1.42  14 1.42 100 1.44
  51  0.346  0.833  0.436-  15 1.42   7 1.42   3 1.43
  52  0.577  0.833  0.437-   8 1.42  16 1.42   4 1.43
  53  0.403  0.667  0.436-   3 1.42  19 1.42   5 1.43
  54  0.634  0.667  0.437-   4 1.42  20 1.42   6 1.43
  55  0.288  0.667  0.436-  25 1.40  41 1.40   7 1.44
  56  0.519  0.667  0.437-   1 1.42  17 1.42   8 1.43
  57  0.461  0.167  0.437-  21 1.42  13 1.42   9 1.43
  58  0.692  0.167  0.436-  22 1.42  14 1.42 102 1.44
  59  0.346  0.167  0.436-  15 1.42  23 1.42  11 1.43
  60  0.577  0.167  0.437-  24 1.42  16 1.42  12 1.43
  61  0.403  0.000  0.436-  11 1.42   3 1.42  13 1.43
  62  0.634  0.000  0.437-   4 1.42  12 1.42  14 1.43
  63  0.288  0.000  0.436-  25 1.40  33 1.40  15 1.44
  64  0.519  0.000  0.437-   9 1.42   1 1.42  16 1.43
  65  0.461  0.500  0.437-  21 1.42   5 1.42  17 1.43
  66  0.692  0.500  0.436-  22 1.42   6 1.42 101 1.44
  67  0.346  0.500  0.436-  23 1.42   7 1.42  19 1.43
  68  0.577  0.500  0.437-   8 1.42  24 1.42  20 1.43
  69  0.403  0.333  0.436-  11 1.42  19 1.42  21 1.43
  70  0.634  0.333  0.437-  12 1.42  20 1.42  22 1.43
  71  0.288  0.333  0.436-  33 1.40  41 1.40  23 1.44
  72  0.519  0.333  0.437-   9 1.42  17 1.42  24 1.43
  73  0.481  1.000  0.563-  34 1.42  26 1.42  37 1.43
  74  0.712  1.000  0.564-  10 1.40   2 1.40  38 1.44
  75  0.366  1.000  0.563-  27 1.42  35 1.42  39 1.43
  76  0.596  1.000  0.564-  36 1.42  28 1.42  40 1.43
  77  0.423  0.833  0.563-  29 1.42  37 1.42  27 1.43
  78  0.654  0.833  0.564-  38 1.42  30 1.42  28 1.43
  79  0.308  0.833  0.564-  31 1.42  39 1.42  97 1.44
  80  0.539  0.833  0.563-  32 1.42  40 1.42  26 1.43
  81  0.481  0.333  0.563-  34 1.42  42 1.42  45 1.43
  82  0.712  0.333  0.564-  18 1.40  10 1.40  46 1.44
  83  0.366  0.333  0.563-  43 1.42  35 1.42  47 1.43
  84  0.596  0.333  0.564-  36 1.42  44 1.42  48 1.43
  85  0.423  0.167  0.563-  45 1.42  37 1.42  35 1.43
  86  0.654  0.167  0.564-  38 1.42  46 1.42  36 1.43
  87  0.308  0.167  0.564-  47 1.42  39 1.42  99 1.44
  88  0.539  0.167  0.563-  48 1.42  40 1.42  34 1.43
  89  0.481  0.667  0.563-  26 1.42  42 1.42  29 1.43
  90  0.712  0.667  0.564-   2 1.40  18 1.40  30 1.44
  91  0.366  0.667  0.563-  27 1.42  43 1.42  31 1.43
  92  0.596  0.667  0.564-  28 1.42  44 1.42  32 1.43
  93  0.423  0.500  0.563-  29 1.42  45 1.42  43 1.43
  94  0.654  0.500  0.564-  46 1.42  30 1.42  44 1.43
  95  0.308  0.500  0.564-  47 1.42  31 1.42  98 1.44
  96  0.539  0.500  0.563-  32 1.42  48 1.42  42 1.43
  97  0.269  0.833  0.564- 103 1.40 105 1.40  79 1.44
  98  0.269  0.500  0.564- 103 1.40 104 1.40  95 1.44
  99  0.269  0.167  0.564- 104 1.40 105 1.40  87 1.44
 100  0.731  0.833  0.436- 108 1.40 106 1.40  50 1.44
 101  0.731  0.500  0.436- 107 1.40 108 1.40  66 1.44
 102  0.731  0.167  0.436- 106 1.40 107 1.40  58 1.44
 103  0.251  0.667  0.564- 115 1.09  97 1.40  98 1.40
 104  0.251  0.333  0.564- 116 1.09  99 1.40  98 1.40
 105  0.251  1.000  0.564- 117 1.09  99 1.40  97 1.40
 106  0.749  0.000  0.436- 118 1.09 102 1.40 100 1.40
 107  0.749  0.333  0.436- 119 1.09 101 1.40 102 1.40
 108  0.749  0.667  0.436- 120 1.09 101 1.40 100 1.40
 109  0.240  0.833  0.437-  25 1.09
 110  0.240  0.500  0.437-  41 1.09
 111  0.240  0.167  0.437-  33 1.09
 112  0.760  0.833  0.563-   2 1.09
 113  0.760  0.500  0.563-  18 1.09
 114  0.760  0.167  0.563-  10 1.09
 115  0.221  0.667  0.564- 103 1.09
 116  0.221  0.333  0.564- 104 1.09
 117  0.221  1.000  0.564- 105 1.09
 118  0.779  0.000  0.436- 106 1.09
 119  0.779  0.333  0.436- 107 1.09
 120  0.779  0.667  0.436- 108 1.09
 121  0.086  0.333  0.500-

  LATTYP: Found a simple orthorhombic cell.
 ALAT       =     7.3546423912
 B/A-ratio  =     3.7803434082
 C/A-ratio  =     5.0436007255
  
  Lattice vectors:
  
 A1 = (   0.0000000000,   7.3546423912,   0.0000000000)
 A2 = (   0.0000000000,   0.0000000000, -27.8030738831)
 A3 = ( -37.0938796997,   0.0000000000,   0.0000000000)


Analysis of symmetry for initial positions (statically):
=====================================================================
 Subroutine PRICEL returns:
 Original cell was already a primitive cell.
 

 Routine SETGRP: Setting up the symmetry group for a 
 simple orthorhombic supercell.


 Subroutine GETGRP returns: Found  1 space group operations
 (whereof  1 operations were pure point group operations)
 out of a pool of  8 trial point group operations.


The static configuration has the point symmetry C_1 .


Analysis of symmetry for dynamics (positions and initial velocities):
=====================================================================
 Subroutine PRICEL returns:
 Original cell was already a primitive cell.
 

 Routine SETGRP: Setting up the symmetry group for a 
 simple orthorhombic supercell.


 Subroutine GETGRP returns: Found  1 space group operations
 (whereof  1 operations were pure point group operations)
 out of a pool of  8 trial point group operations.


The dynamic configuration has the point symmetry C_1 .


Analysis of structural, dynamic, and magnetic symmetry:
=====================================================================
 Subroutine PRICEL returns:
 Original cell was already a primitive cell.
 

 Routine SETGRP: Setting up the symmetry group for a 
 simple orthorhombic supercell.


 Subroutine GETGRP returns: Found  1 space group operations
 (whereof  1 operations were pure point group operations)
 out of a pool of  8 trial point group operations.


The magnetic configuration has the point symmetry C_1 .


 Subroutine INISYM returns: Found  1 space group operations
 (whereof  1 operations are pure point group operations),
 and found     1 'primitive' translations



 KPOINTS: Regular k-point mesh                    

Automatic generation of k-mesh.
Space group operators:
 irot       det(A)        alpha          n_x          n_y          n_z        tau_x        tau_y        tau_z
    1     1.000000     0.000000     1.000000     0.000000     0.000000     0.000000     0.000000     0.000000
 
 Subroutine IBZKPT returns following result:
 ===========================================
 
 Found      5 irreducible k-points:
 
 Following reciprocal coordinates:
            Coordinates               Weight
  0.000000  0.000000  0.000000      1.000000
  0.000000  0.125000  0.000000      2.000000
  0.000000  0.250000  0.000000      2.000000
  0.000000  0.375000  0.000000      2.000000
  0.000000  0.500000  0.000000      1.000000
 
 Following cartesian coordinates:
            Coordinates               Weight
  0.000000  0.000000  0.000000      1.000000
  0.000000  0.016996  0.000000      2.000000
  0.000000  0.033992  0.000000      2.000000
  0.000000  0.050988  0.000000      2.000000
  0.000000  0.067984  0.000000      1.000000
 


--------------------------------------------------------------------------------------------------------




 Dimension of arrays:
   k-points           NKPTS =      5   k-points in BZ     NKDIM =      5   number of bands    NBANDS=    350
   number of dos      NEDOS =    301   number of ions     NIONS =    121
   non local maximal  LDIM  =      4   non local SUM 2l+1 LMDIM =      8
   total plane-waves  NPLWV = 967680
   max r-space proj   IRMAX =   1227   max aug-charges    IRDMAX=   4281
   dimension x,y,z NGX =   192 NGY =   36 NGZ =  140
   dimension x,y,z NGXF=   384 NGYF=   72 NGZF=  280
   support grid    NGXF=   384 NGYF=   72 NGZF=  280
   ions per type =             108  12   1
   NGX,Y,Z   is equivalent  to a cutoff of   8.60,  8.14,  8.37 a.u.
   NGXF,Y,Z  is equivalent  to a cutoff of  17.21, 16.28, 16.74 a.u.

 SYSTEM =  unknown system                          
 POSCAR =  C4                                      

 Startparameter for this run:
   NWRITE =      2    write-flag & timer
   PREC   = normal    normal or accurate (medium, high low for compatibility)
   ISTART =      0    job   : 0-new  1-cont  2-samecut
   ICHARG =      2    charge: 1-file 2-atom 10-const
   ISPIN  =      2    spin polarized calculation?
   LNONCOLLINEAR =      F non collinear calculations
   LSORBIT =      F    spin-orbit coupling
   INIWAV =      1    electr: 0-lowe 1-rand  2-diag
   LASPH  =      F    aspherical Exc in radial PAW
   METAGGA=      F    non-selfconsistent MetaGGA calc.

 Electronic Relaxation 1
   ENCUT  =  400.0 eV  29.40 Ry    5.42 a.u.  60.49 11.99 45.34*2*pi/ulx,y,z
   ENINI  =  400.0     initial cutoff
   ENAUG  =  644.9 eV  augmentation charge cutoff
   NELM   =    100;   NELMIN=  2; NELMDL= -5     # of ELM steps 
   EDIFF  = 0.1E-03   stopping-criterion for ELM
   LREAL  =      T    real-space projection
   NLSPLINE    = F    spline interpolate recip. space projectors
   LCOMPAT=      F    compatible to vasp.4.4
   GGA_COMPAT  = T    GGA compatible to vasp.4.4-vasp.4.6
   LMAXPAW     = -100 max onsite density
   LMAXMIX     =    2 max onsite mixed and CHGCAR
   VOSKOWN=      0    Vosko Wilk Nusair interpolation
   ROPT   =   -0.00050  -0.00050  -0.00050
 Ionic relaxation
   EDIFFG = -.1E-01   stopping-criterion for IOM
   NSW    =      0    number of steps for IOM
   NBLOCK =      1;   KBLOCK =      1    inner block; outer block 
   IBRION =     -1    ionic relax: 0-MD 1-quasi-New 2-CG
   NFREE  =      1    steps in history (QN), initial steepest desc. (CG)
   ISIF   =      2    stress and relaxation
   IWAVPR =     10    prediction:  0-non 1-charg 2-wave 3-comb
   ISYM   =      2    0-nonsym 1-usesym 2-fastsym
   LCORR  =      T    Harris-Foulkes like correction to forces

   POTIM  = 0.5000    time-step for ionic-motion
   TEIN   =    0.0    initial temperature
   TEBEG  =    0.0;   TEEND  =   0.0 temperature during run
   SMASS  =  -3.00    Nose mass-parameter (am)
   estimated Nose-frequenzy (Omega)   =  0.10E-29 period in steps =****** mass=  -0.314E-25a.u.
   SCALEE = 1.0000    scale energy and forces
   NPACO  =    256;   APACO  = 16.0  distance and # of slots for P.C.
   PSTRESS=    0.0 pullay stress

  Mass of Ions in am
   POMASS =  12.01  1.00  7.01
  Ionic Valenz
   ZVAL   =   4.00  1.00  1.00
  Atomic Wigner-Seitz radii
   RWIGS  =  -1.00 -1.00 -1.00
  virtual crystal weights 
   VCA    =   1.00  1.00  1.00
   NELECT =     445.0000    total number of electrons
   NUPDOWN=      -1.0000    fix difference up-down

 DOS related values:
   EMIN   =  10.00;   EMAX   =-10.00  energy-range for DOS
   EFERMI =   0.00
   ISMEAR =     0;   SIGMA  =   0.10  broadening in eV -4-tet -1-fermi 0-gaus

 Electronic relaxation 2 (details)
   IALGO  =     38    algorithm
   LDIAG  =      T    sub-space diagonalisation (order eigenvalues)
   LSUBROT=      F    optimize rotation matrix (better conditioning)
   TURBO    =      0    0=normal 1=particle mesh
   IRESTART =      0    0=no restart 2=restart with 2 vectors
   NREBOOT  =      0    no. of reboots
   NMIN     =      0    reboot dimension
   EREF     =   0.00    reference energy to select bands
   IMIX   =      4    mixing-type and parameters
     AMIX     =   0.40;   BMIX     =  1.00
     AMIX_MAG =   1.60;   BMIX_MAG =  1.00
     AMIN     =   0.10
     WC   =   100.;   INIMIX=   1;  MIXPRE=   1;  MAXMIX= -45

 Intra band minimization:
   WEIMIN = 0.0000     energy-eigenvalue tresh-hold
   EBREAK =  0.71E-07  absolut break condition
   DEPER  =   0.30     relativ break condition  

   TIME   =   0.40     timestep for ELM

  volume/ion in A,a.u.               =      62.69       423.03
  Fermi-wavevector in a.u.,A,eV,Ry     =   0.636125  1.202102  5.505670  0.404655
  Thomas-Fermi vector in A             =   1.700690

 Write flags
   LWAVE        =      T    write WAVECAR
   LDOWNSAMPLE  =      F    k-point downsampling of WAVECAR
   LCHARG       =      T    write CHGCAR
   LVTOT        =      F    write LOCPOT, total local potential
   LVHAR        =      F    write LOCPOT, Hartree potential only
   LELF         =      F    write electronic localiz. function (ELF)
   LORBIT       =      0    0 simple, 1 ext, 2 COOP (PROOUT), +10 PAW based schemes


 Dipole corrections
   LMONO  =      F    monopole corrections only (constant potential shift)
   LDIPOL =      F    correct potential (dipole corrections)
   IDIPOL =      0    1-x, 2-y, 3-z, 4-all directions 
   EPSILON=  1.0000000 bulk dielectric constant

 Exchange correlation treatment:
   GGA     =    --    GGA type
   LEXCH   =     8    internal setting for exchange type
   VOSKOWN=      0    Vosko Wilk Nusair interpolation
   LHFCALC =     F    Hartree Fock is set to
   LHFONE  =     F    Hartree Fock one center treatment
   AEXX    =    0.0000 exact exchange contribution

 Linear response parameters
   LEPSILON=     F    determine dielectric tensor
   LRPA    =     F    only Hartree local field effects (RPA)
   LNABLA  =     F    use nabla operator in PAW spheres
   LVEL    =     F    velocity operator in full k-point grid
   LINTERFAST=   F  fast interpolation
   KINTER  =     0    interpolate to denser k-point grid
   CSHIFT  =0.1000    complex shift for real part using Kramers Kronig
   OMEGAMAX=  -1.0    maximum frequency
   DEG_THRESHOLD= 0.2000000E-02 threshold for treating states as degnerate
   RTIME   =   -0.100 relaxation time in fs
  (WPLASMAI=    0.000 imaginary part of plasma frequency in eV, 0.658/RTIME)
   DFIELD  = 0.0000000 0.0000000 0.0000000 field for delta impulse in time

 Orbital magnetization related:
   ORBITALMAG=     F  switch on orbital magnetization
   LCHIMAG   =     F  perturbation theory with respect to B field
   DQ        =  0.001000  dq finite difference perturbation B field
   LLRAUG    =     F  two centre corrections for induced B field



--------------------------------------------------------------------------------------------------------


 Static calculation
 charge density and potential will be updated during run
 spin polarized calculation
 Variant of blocked Davidson
 Davidson routine will perform the subspace rotation
 perform sub-space diagonalisation
    after iterative eigenvector-optimisation
 modified Broyden-mixing scheme, WC =      100.0
 initial mixing is a Kerker type mixing with AMIX =  0.4000 and BMIX =      1.0000
 Hartree-type preconditioning will be used
 using additional bands          127
 real space projection scheme for non local part
 use partial core corrections
 calculate Harris-corrections to forces   (improved forces if not selfconsistent)
 use gradient corrections 
 use of overlap-Matrix (Vanderbilt PP)
 Gauss-broadening in eV      SIGMA  =   0.10


--------------------------------------------------------------------------------------------------------


  energy-cutoff  :      400.00
  volume of cell :     7585.02
      direct lattice vectors                 reciprocal lattice vectors
    37.093879700  0.000000000  0.000000000     0.026958625  0.000000000  0.000000000
     0.000000000  7.354642391  0.000000000     0.000000000  0.135968542  0.000000000
     0.000000000  0.000000000 27.803073883     0.000000000  0.000000000  0.035967246

  length of vectors
    37.093879700  7.354642391 27.803073883     0.026958625  0.135968542  0.035967246



 k-points in units of 2pi/SCALE and weight: Regular k-point mesh                    
   0.00000000  0.00000000  0.00000000       0.125
   0.00000000  0.01699607  0.00000000       0.250
   0.00000000  0.03399214  0.00000000       0.250
   0.00000000  0.05098820  0.00000000       0.250
   0.00000000  0.06798427  0.00000000       0.125

 k-points in reciprocal lattice and weights: Regular k-point mesh                    
   0.00000000  0.00000000  0.00000000       0.125
   0.00000000  0.12500000  0.00000000       0.250
   0.00000000  0.25000000  0.00000000       0.250
   0.00000000  0.37500000  0.00000000       0.250
   0.00000000  0.50000000  0.00000000       0.125

 position of ions in fractional coordinates (direct lattice) 
   0.49962302  0.83334596  0.43662535
   0.73066134  0.83331610  0.56339515
   0.38423247  0.83334677  0.43625725
   0.61505701  0.83335187  0.43674515
   0.44192569  0.66669330  0.43650211
   0.67283007  0.66668896  0.43653958
   0.32654510  0.66669217  0.43616746
   0.55733142  0.66669999  0.43672913
   0.49962268  0.16670877  0.43662594
   0.73066113  0.16662071  0.56339476
   0.38423226  0.16669335  0.43625750
   0.61505700  0.16670545  0.43674605
   0.44192710  0.00001920  0.43647264
   0.67282633  0.00002146  0.43652694
   0.32655548  0.00001837  0.43616080
   0.55733021  0.00002212  0.43669884
   0.49962321  0.50002170  0.43665560
   0.73067088  0.49996892  0.56340083
   0.38422621  0.50001913  0.43628120
   0.61505966  0.50002701  0.43676575
   0.44192634  0.33335008  0.43650303
   0.67283097  0.33336643  0.43654021
   0.32654507  0.33334499  0.43616702
   0.55733156  0.33334321  0.43672808
   0.26922946  0.83336080  0.43653581
   0.50025688  0.83327782  0.56329831
   0.38481573  0.83329936  0.56329157
   0.61565322  0.83329850  0.56362922
   0.44254345  0.66663618  0.56321302
   0.67334447  0.66664340  0.56375307
   0.32704450  0.66663636  0.56355285
   0.55795801  0.66664352  0.56342197
   0.26922837  0.16667521  0.43653734
   0.50025663  0.16664389  0.56329869
   0.38481583  0.16663999  0.56329305
   0.61565300  0.16664625  0.56362935
   0.44254526  0.99996676  0.56324491
   0.67333138  0.99997307  0.56375938
   0.32704839  0.99997225  0.56356953
   0.55795707  0.99997197  0.56344983
   0.26921779  0.50001919  0.43653016
   0.50025488  0.49996089  0.56327282
   0.38481501  0.49996611  0.56327469
   0.61565711  0.49997520  0.56361738
   0.44254402  0.33329096  0.56321247
   0.67334418  0.33330223  0.56375315
   0.32704384  0.33331426  0.56355356
   0.55795832  0.33330084  0.56342166
   0.46115511  0.83334925  0.43653427
   0.69196207  0.83335379  0.43638908
   0.34567751  0.83334323  0.43615399
   0.57656441  0.83335672  0.43672708
   0.40343889  0.66668949  0.43633941
   0.63426941  0.66669397  0.43671688
   0.28767251  0.66667702  0.43633102
   0.51886010  0.66669326  0.43666161
   0.46115498  0.16669179  0.43653550
   0.69196192  0.16669275  0.43638941
   0.34567765  0.16669595  0.43615529
   0.57656336  0.16669202  0.43672698
   0.40344034  0.00002514  0.43630849
   0.63426550  0.00002566  0.43670094
   0.28768462  0.00001934  0.43632595
   0.51885757  0.00002940  0.43663114
   0.46115439  0.50002253  0.43656315
   0.69196860  0.50002897  0.43639455
   0.34567160  0.50001599  0.43616051
   0.57656554  0.50002291  0.43674537
   0.40343908  0.33335188  0.43633911
   0.63426965  0.33336157  0.43671698
   0.28767217  0.33335832  0.43633172
   0.51886099  0.33335797  0.43666161
   0.48102273  0.99996236  0.56328966
   0.71220357  0.99997136  0.56360723
   0.36560545  0.99996569  0.56337048
   0.59644553  0.99997252  0.56358494
   0.42330983  0.83329654  0.56323966
   0.65421100  0.83329550  0.56375660
   0.30791330  0.83330673  0.56372061
   0.53872823  0.83330054  0.56339974
   0.48101722  0.33329401  0.56325893
   0.71221707  0.33330947  0.56359971
   0.36560263  0.33330322  0.56334552
   0.59644256  0.33330279  0.56355749
   0.42330996  0.16663732  0.56324021
   0.65421105  0.16665086  0.56375656
   0.30791349  0.16664027  0.56372051
   0.53872788  0.16664171  0.56339992
   0.48101754  0.66662880  0.56325893
   0.71221823  0.66663276  0.56360001
   0.36560258  0.66663724  0.56334571
   0.59644320  0.66664006  0.56355734
   0.42331137  0.49996598  0.56322040
   0.65421644  0.49997290  0.56374986
   0.30790592  0.49997608  0.56370932
   0.53872762  0.49997229  0.56337605
   0.26903638  0.83329748  0.56405128
   0.26902376  0.49997085  0.56403886
   0.26903748  0.16663653  0.56405114
   0.73084046  0.83334764  0.43613705
   0.73085283  0.50001879  0.43615544
   0.73084021  0.16669278  0.43613737
   0.25057093  0.66665379  0.56420596
   0.25057262  0.33327946  0.56420622
   0.25057986  0.99997191  0.56421891
   0.74930133  0.00002525  0.43604197
   0.74931007  0.33333983  0.43604803
   0.74931067  0.66669884  0.43604832
   0.23975978  0.83348167  0.43706729
   0.23974918  0.50001992  0.43706666
   0.23975913  0.16655446  0.43706806
   0.76013020  0.83342324  0.56287121
   0.76014095  0.49996936  0.56287594
   0.76013050  0.16651573  0.56287109
   0.22109754  0.66674002  0.56445777
   0.22110088  0.33320722  0.56445794
   0.22110271  0.99997508  0.56444496
   0.77877843  0.00001864  0.43592714
   0.77878103  0.33326140  0.43591122
   0.77878319  0.66677104  0.43591173
   0.08630687  0.33287245  0.50015937

 position of ions in cartesian coordinates  (Angst):
  18.53295627  6.12896150 12.13952695
  27.10306372  6.12874193 15.66411695
  14.25267299  6.12896745 12.12929264
  22.81485090  6.12900502 12.14285772
  16.39273824  4.90329083 12.13610028
  24.95787772  4.90325886 12.13714218
  12.11282480  4.90328247 12.12679615
  20.67358480  4.90333998 12.14241221
  18.53294374  1.22608341 12.13954321
  27.10305605  1.22543573 15.66410609
  14.25266518  1.22596998 12.12929962
  22.81485027  1.22605893 12.14288270
  16.39279076  0.00014124 12.13528108
  24.95773913  0.00015780 12.13679084
  12.11320961  0.00013512 12.12661086
  20.67353960  0.00016271 12.14157012
  18.53296333  3.67748082 12.14036784
  27.10341784  3.67709261 15.66427477
  14.25244085  3.67746192 12.12995834
  22.81494906  3.67751984 12.14343039
  16.39276261  2.45167059 12.13612600
  24.95791120  2.45179089 12.13715984
  12.11282358  2.45163319 12.12678380
  20.67358991  2.45162009 12.14238309
   9.98676519  6.12907063 12.13703733
  18.55646859  6.12846034 15.66142467
  14.27430831  6.12861879 15.66123719
  22.83696661  6.12861247 15.67062486
  16.41565363  4.90287074 15.65905328
  24.97695872  4.90292378 15.67406837
  12.13134943  4.90287201 15.66850157
  20.69682734  4.90292467 15.66486270
   9.98672459  1.22583657 12.13707998
  18.55645921  1.22560623 15.66143501
  14.27431221  1.22557755 15.66127817
  22.83695815  1.22562357 15.67062847
  16.41572068  7.35439795 15.65993973
  24.97647327  7.35444435 15.67424382
  12.13149372  7.35443829 15.66896540
  20.69679232  7.35443622 15.66563714
   9.98633220  3.67746234 12.13688039
  18.55639433  3.67703353 15.66071594
  14.27428151  3.67707191 15.66076792
  22.83711084  3.67713881 15.67029564
  16.41567446  2.45123582 15.65903800
  24.97694783  2.45131874 15.67407043
  12.13132481  2.45140721 15.66852113
  20.69683879  2.45130852 15.66485396
  17.10603201  6.12898569 12.13699460
  25.66755774  6.12901910 12.13295779
  12.82251984  6.12894148 12.12642159
  21.38701074  6.12904068 12.14235525
  14.96511359  4.90326276 12.13157683
  23.52751307  4.90329573 12.14207174
  10.67088937  4.90317111 12.13134361
  19.24653403  4.90329051 12.14053501
  17.10602741  1.22595853 12.13702867
  25.66755216  1.22596554 12.13296696
  12.82252523  1.22598907 12.12645786
  21.38697191  1.22596016 12.14235256
  14.96516743  0.00018493 12.13071717
  23.52736820  0.00018875 12.14162851
  10.67133884  0.00014227 12.13120251
  19.24644025  0.00021622 12.13968793
  17.10600530  3.67748689 12.13779760
  25.66780003  3.67753426 12.13310980
  12.82230082  3.67743879 12.12660283
  21.38705275  3.67748970 12.14286376
  14.96512087  2.45168386 12.13156846
  23.52752194  2.45175513 12.14207436
  10.67087672  2.45173127 12.13136297
  19.24656710  2.45172863 12.14053502
  17.84299910  7.35436556 15.66118406
  26.41839348  7.35443176 15.67001357
  13.56172456  7.35439003 15.66343121
  22.12447879  7.35444030 15.66939379
  15.70220406  6.12859807 15.65979397
  24.26722425  6.12859038 15.67416628
  11.42169899  6.12867298 15.67316586
  19.98352017  6.12862744 15.66424454
  17.84279486  2.45125823 15.66032952
  26.41889419  2.45137198 15.66980445
  13.56161994  2.45132600 15.66273723
  22.12436842  2.45132279 15.66863048
  15.70220877  1.22555793 15.65980919
  24.26722585  1.22565748 15.67416540
  11.42170612  1.22557956 15.67316290
  19.98350721  1.22559018 15.66424950
  17.84280678  4.90281642 15.66032974
  26.41893741  4.90284554 15.66981275
  13.56161804  4.90287853 15.66274250
  22.12439221  4.90289924 15.66862627
  15.70226111  3.67707100 15.65925837
  24.26742608  3.67712192 15.67397905
  11.42142519  3.67714529 15.67285185
  19.98349756  3.67711739 15.66358598
   9.97960295  6.12860494 15.68235932
   9.97913512  3.67710679 15.68201413
   9.97964394  1.22555208 15.68235547
  27.10970817  6.12897391 12.12595057
  27.11016709  3.67745942 12.12646203
  27.10969880  1.22596580 12.12595950
   9.29464779  4.90300019 15.68665993
   9.29471055  2.45115122 15.68666710
   9.29497901  7.35443577 15.68702012
  27.79449340  0.00018568 12.12330701
  27.79481761  2.45159525 12.12347560
  27.79483993  4.90333154 12.12348366
   8.89362054  6.12995962 12.15181427
   8.89322707  3.67746767 12.15179668
   8.89359646  1.22494852 12.15183555
  28.19617832  6.12952986 15.64954983
  28.19657684  3.67709587 15.64968127
  28.19618929  1.22466361 15.64954648
   8.20136545  4.90363441 15.69366119
   8.20148961  2.45061997 15.69366574
   8.20155735  7.35445912 15.69330491
  28.88791346  0.00013710 12.12011440
  28.88800968  2.45101841 12.11967182
  28.88809011  4.90386259 12.11968607
   3.20145680  2.44815782 13.90596783



--------------------------------------------------------------------------------------------------------


 k-point  1 :   0.0000 0.0000 0.0000  plane waves:  137621
 k-point  2 :   0.0000 0.1250 0.0000  plane waves:  137658
 k-point  3 :   0.0000 0.2500 0.0000  plane waves:  137784
 k-point  4 :   0.0000 0.3750 0.0000  plane waves:  137874
 k-point  5 :   0.0000 0.5000 0.0000  plane waves:  137872

 maximum and minimum number of plane-waves per node :     34603    34274

 maximum number of plane-waves:    137874
 maximum index in each direction: 
   IXMAX=   60   IYMAX=   11   IZMAX=   45
   IXMIN=  -60   IYMIN=  -12   IZMIN=  -45


 real space projection operators:
  total allocation   :       8241.99 KBytes
  max/ min on nodes  :       2063.72       2055.95


 parallel 3D FFT for wavefunctions:
    minimum data exchange during FFTs selected (reduces bandwidth)
 parallel 3D FFT for charge:
    minimum data exchange during FFTs selected (reduces bandwidth)


 total amount of memory used by VASP MPI-rank0   280967. kBytes
=======================================================================

   base      :      30000. kBytes
   nonlr-proj:       4990. kBytes
   fftplans  :      14214. kBytes
   grid      :      37253. kBytes
   one-center:        190. kBytes
   wavefun   :     194320. kBytes

     INWAV:  cpu time    0.0000: real time    0.0000
 Broyden mixing: mesh for mixing (old mesh)
   NGX =121   NGY = 23   NGZ = 91
  (NGX  =384   NGY  = 72   NGZ  =280)
  gives a total of 253253 points

 initial charge density was supplied:
 charge density of overlapping atoms calculated
 number of electron     445.0000000 magnetization     121.0000000
 keeping initial charge density in first step


--------------------------------------------------------------------------------------------------------


 Maximum index for non-local projection operator          301
 Maximum index for augmentation-charges          155 (set IRDMAX)


--------------------------------------------------------------------------------------------------------


 First call to EWALD:  gamma=   0.090
 Maximum number of real-space cells 2x 7x 2
 Maximum number of reciprocal cells 5x 1x 4

    FEWALD:  cpu time    0.0043: real time    0.0044


--------------------------------------- Iteration      1(   1)  ---------------------------------------


    POTLOK:  cpu time    0.2719: real time    0.2786
    SETDIJ:  cpu time    0.0154: real time    0.0155
     EDDAV:  cpu time   37.5736: real time   37.9014
       DOS:  cpu time    0.0011: real time    0.0011
    --------------------------------------------
      LOOP:  cpu time   37.8619: real time   38.1966

 eigenvalue-minimisations  :  8580
 total energy-change (2. order) : 0.3561651E+04  (-0.1381561E+05)
 number of electron     445.0000000 magnetization     121.0000000
 augmentation part      445.0000000 magnetization     121.0000000

 Free energy of the ion-electron system (eV)
  ---------------------------------------------------
  alpha Z        PSCENC =       131.99278517
  Ewald energy   TEWEN  =    183928.10526489
  -Hartree energ DENC   =   -195253.50310180
  -exchange      EXHF   =         0.00000000
  -V(xc)+E(xc)   XCENC  =      1469.25840850
  PAW double counting   =     11735.59191605   -11790.67375283
  entropy T*S    EENTRO =        -0.28258199
  eigenvalues    EBANDS =     -2703.62223813
  atomic energy  EATOM  =     16044.78385898
  Solvation  Ediel_sol  =         0.00000000
  ---------------------------------------------------
  free energy    TOTEN  =      3561.65055884 eV

  energy without entropy =     3561.93314083  energy(sigma->0) =     3561.79184983


--------------------------------------------------------------------------------------------------------




--------------------------------------- Iteration      1(   2)  ---------------------------------------


     EDDAV:  cpu time   46.1235: real time   46.5091
       DOS:  cpu time    0.0010: real time    0.0010
    --------------------------------------------
      LOOP:  cpu time   46.1245: real time   46.5100

 eigenvalue-minimisations  : 10860
 total energy-change (2. order) :-0.3793426E+04  (-0.3468448E+04)
 number of electron     445.0000000 magnetization     121.0000000
 augmentation part      445.0000000 magnetization     121.0000000

 Free energy of the ion-electron system (eV)
  ---------------------------------------------------
  alpha Z        PSCENC =       131.99278517
  Ewald energy   TEWEN  =    183928.10526489
  -Hartree energ DENC   =   -195253.50310180
  -exchange      EXHF   =         0.00000000
  -V(xc)+E(xc)   XCENC  =      1469.25840850
  PAW double counting   =     11735.59191605   -11790.67375283
  entropy T*S    EENTRO =        -0.02177329
  eigenvalues    EBANDS =     -6497.30873639
  atomic energy  EATOM  =     16044.78385898
  Solvation  Ediel_sol  =         0.00000000
  ---------------------------------------------------
  free energy    TOTEN  =      -231.77513072 eV

  energy without entropy =     -231.75335744  energy(sigma->0) =     -231.76424408


--------------------------------------------------------------------------------------------------------




--------------------------------------- Iteration      1(   3)  ---------------------------------------


     EDDAV:  cpu time   40.9360: real time   41.2710
       DOS:  cpu time    0.0012: real time    0.0012
    --------------------------------------------
      LOOP:  cpu time   40.9372: real time   41.2722

 eigenvalue-minimisations  :  9440
 total energy-change (2. order) :-0.7897883E+03  (-0.7863680E+03)
 number of electron     445.0000000 magnetization     121.0000000
 augmentation part      445.0000000 magnetization     121.0000000

 Free energy of the ion-electron system (eV)
  ---------------------------------------------------
  alpha Z        PSCENC =       131.99278517
  Ewald energy   TEWEN  =    183928.10526489
  -Hartree energ DENC   =   -195253.50310180
  -exchange      EXHF   =         0.00000000
  -V(xc)+E(xc)   XCENC  =      1469.25840850
  PAW double counting   =     11735.59191605   -11790.67375283
  entropy T*S    EENTRO =        -0.02482826
  eigenvalues    EBANDS =     -7287.09399441
  atomic energy  EATOM  =     16044.78385898
  Solvation  Ediel_sol  =         0.00000000
  ---------------------------------------------------
  free energy    TOTEN  =     -1021.56344371 eV

  energy without entropy =    -1021.53861545  energy(sigma->0) =    -1021.55102958


--------------------------------------------------------------------------------------------------------




--------------------------------------- Iteration      1(   4)  ---------------------------------------


     EDDAV:  cpu time   40.4470: real time   40.7786
       DOS:  cpu time    0.0010: real time    0.0010
    --------------------------------------------
      LOOP:  cpu time   40.4480: real time   40.7796

 eigenvalue-minimisations  :  9360
 total energy-change (2. order) :-0.2983213E+02  (-0.2970273E+02)
 number of electron     445.0000000 magnetization     121.0000000
 augmentation part      445.0000000 magnetization     121.0000000

 Free energy of the ion-electron system (eV)
  ---------------------------------------------------
  alpha Z        PSCENC =       131.99278517
  Ewald energy   TEWEN  =    183928.10526489
  -Hartree energ DENC   =   -195253.50310180
  -exchange      EXHF   =         0.00000000
  -V(xc)+E(xc)   XCENC  =      1469.25840850
  PAW double counting   =     11735.59191605   -11790.67375283
  entropy T*S    EENTRO =        -0.02356629
  eigenvalues    EBANDS =     -7316.92739042
  atomic energy  EATOM  =     16044.78385898
  Solvation  Ediel_sol  =         0.00000000
  ---------------------------------------------------
  free energy    TOTEN  =     -1051.39557776 eV

  energy without entropy =    -1051.37201147  energy(sigma->0) =    -1051.38379461


--------------------------------------------------------------------------------------------------------




--------------------------------------- Iteration      1(   5)  ---------------------------------------


     EDDAV:  cpu time   43.5441: real time   43.9047
       DOS:  cpu time    0.0010: real time    0.0010
    CHARGE:  cpu time    0.8133: real time    0.8740
    MIXING:  cpu time    0.0044: real time    0.0048
    --------------------------------------------
      LOOP:  cpu time   44.3628: real time   44.7845

 eigenvalue-minimisations  : 10180
 total energy-change (2. order) :-0.7237307E+00  (-0.7220505E+00)
 number of electron     444.9999281 magnetization     115.8290952
 augmentation part       11.7797796 magnetization     111.0898928

 Broyden mixing:
  rms(total) = 0.69967E+01    rms(broyden)= 0.69943E+01
  rms(prec ) = 0.70756E+01
  weight for this iteration     100.00

 Free energy of the ion-electron system (eV)
  ---------------------------------------------------
  alpha Z        PSCENC =       131.99278517
  Ewald energy   TEWEN  =    183928.10526489
  -Hartree energ DENC   =   -195253.50310180
  -exchange      EXHF   =         0.00000000
  -V(xc)+E(xc)   XCENC  =      1469.25840850
  PAW double counting   =     11735.59191605   -11790.67375283
  entropy T*S    EENTRO =        -0.02351160
  eigenvalues    EBANDS =     -7317.65117581
  atomic energy  EATOM  =     16044.78385898
  Solvation  Ediel_sol  =         0.00000000
  ---------------------------------------------------
  free energy    TOTEN  =     -1052.11930845 eV

  energy without entropy =    -1052.09579685  energy(sigma->0) =    -1052.10755265


--------------------------------------------------------------------------------------------------------




--------------------------------------- Iteration      1(   6)  ---------------------------------------


    POTLOK:  cpu time    0.2178: real time    0.2204
    SETDIJ:  cpu time    0.0176: real time    0.0177
     EDDAV:  cpu time   35.3288: real time   35.6202
       DOS:  cpu time    0.0047: real time    0.0047
    CHARGE:  cpu time    0.7888: real time    0.7959
    MIXING:  cpu time    0.0047: real time    0.7339
    --------------------------------------------
      LOOP:  cpu time   36.3624: real time   37.3928

 eigenvalue-minimisations  :  8030
 total energy-change (2. order) : 0.3667762E+03  (-0.6063427E+02)
 number of electron     444.9999317 magnetization     109.6870893
 augmentation part       11.6420203 magnetization     103.4024256

 Broyden mixing:
  rms(total) = 0.41779E+01    rms(broyden)= 0.41773E+01
  rms(prec ) = 0.42378E+01
  weight for this iteration     100.00

 eigenvalues of (default mixing * dielectric matrix)
  average eigenvalue GAMMA=   1.0104
  1.0104

 Free energy of the ion-electron system (eV)
  ---------------------------------------------------
  alpha Z        PSCENC =       131.99278517
  Ewald energy   TEWEN  =    183928.10526489
  -Hartree energ DENC   =   -196089.74520456
  -exchange      EXHF   =         0.00000000
  -V(xc)+E(xc)   XCENC  =      1727.61364247
  PAW double counting   =     21866.94303770   -21930.99607482
  entropy T*S    EENTRO =        -0.03259822
  eigenvalues    EBANDS =     -6364.00785752
  atomic energy  EATOM  =     16044.78385898
  Solvation  Ediel_sol  =         0.00000000
  ---------------------------------------------------
  free energy    TOTEN  =      -685.34314590 eV

  energy without entropy =     -685.31054768  energy(sigma->0) =     -685.32684679


--------------------------------------------------------------------------------------------------------




--------------------------------------- Iteration      1(   7)  ---------------------------------------


    POTLOK:  cpu time    0.2140: real time    0.2480
    SETDIJ:  cpu time    0.0183: real time    0.0184
     EDDAV:  cpu time   35.9978: real time   36.2897
       DOS:  cpu time    0.0044: real time    0.0045
    CHARGE:  cpu time    0.8018: real time    0.8091
    MIXING:  cpu time    0.0061: real time    0.0062
    --------------------------------------------
      LOOP:  cpu time   37.0425: real time   37.3758

 eigenvalue-minimisations  :  8300
 total energy-change (2. order) :-0.3715361E+02  (-0.6649754E+01)
 number of electron     444.9999333 magnetization     101.1074880
 augmentation part       11.2617211 magnetization      94.2358971

 Broyden mixing:
  rms(total) = 0.28910E+01    rms(broyden)= 0.28907E+01
  rms(prec ) = 0.29074E+01
  weight for this iteration     100.00

 eigenvalues of (default mixing * dielectric matrix)
  average eigenvalue GAMMA=   1.2872
  0.8118  1.7626

 Free energy of the ion-electron system (eV)
  ---------------------------------------------------
  alpha Z        PSCENC =       131.99278517
  Ewald energy   TEWEN  =    183928.10526489
  -Hartree energ DENC   =   -196896.18311411
  -exchange      EXHF   =         0.00000000
  -V(xc)+E(xc)   XCENC  =      1702.68762479
  PAW double counting   =     32787.04408865   -32856.22164064
  entropy T*S    EENTRO =        -0.02323173
  eigenvalues    EBANDS =     -5564.68239247
  atomic energy  EATOM  =     16044.78385898
  Solvation  Ediel_sol  =         0.00000000
  ---------------------------------------------------
  free energy    TOTEN  =      -722.49675646 eV

  energy without entropy =     -722.47352473  energy(sigma->0) =     -722.48514060


--------------------------------------------------------------------------------------------------------




--------------------------------------- Iteration      1(   8)  ---------------------------------------


    POTLOK:  cpu time    0.2187: real time    0.2201
    SETDIJ:  cpu time    0.0182: real time    0.0183
     EDDAV:  cpu time   36.1181: real time   36.4118
       DOS:  cpu time    0.0046: real time    0.0046
    CHARGE:  cpu time    0.8014: real time    0.8085
    MIXING:  cpu time    0.0089: real time    0.0089
    --------------------------------------------
      LOOP:  cpu time   37.1698: real time   37.4724

 eigenvalue-minimisations  :  8330
 total energy-change (2. order) :-0.3791157E+02  (-0.3609508E+01)
 number of electron     444.9999344 magnetization      94.4830793
 augmentation part       10.9111265 magnetization      87.9675607

 Broyden mixing:
  rms(total) = 0.20237E+01    rms(broyden)= 0.20236E+01
  rms(prec ) = 0.20267E+01
  weight for this iteration     100.00

 eigenvalues of (default mixing * dielectric matrix)
  average eigenvalue GAMMA=   1.3659
  2.3806  1.0234  0.6936

 Free energy of the ion-electron system (eV)
  ---------------------------------------------------
  alpha Z        PSCENC =       131.99278517
  Ewald energy   TEWEN  =    183928.10526489
  -Hartree energ DENC   =   -197467.47474999
  -exchange      EXHF   =         0.00000000
  -V(xc)+E(xc)   XCENC  =      1695.63309498
  PAW double counting   =     45162.51375389   -45234.26914381
  entropy T*S    EENTRO =        -0.02024201
  eigenvalues    EBANDS =     -5021.67295303
  atomic energy  EATOM  =     16044.78385898
  Solvation  Ediel_sol  =         0.00000000
  ---------------------------------------------------
  free energy    TOTEN  =      -760.40833092 eV

  energy without entropy =     -760.38808891  energy(sigma->0) =     -760.39820991


--------------------------------------------------------------------------------------------------------




--------------------------------------- Iteration      1(   9)  ---------------------------------------


    POTLOK:  cpu time    0.2124: real time    0.2300
    SETDIJ:  cpu time    0.0183: real time    0.0184
     EDDAV:  cpu time   35.4599: real time   35.7371
       DOS:  cpu time    0.0046: real time    0.0046
    CHARGE:  cpu time    0.7840: real time    0.7910
    MIXING:  cpu time    0.0083: real time    0.0084
    --------------------------------------------
      LOOP:  cpu time   36.4875: real time   36.7896

 eigenvalue-minimisations  :  8200
 total energy-change (2. order) :-0.4230451E+02  (-0.1159764E+01)
 number of electron     444.9999346 magnetization      83.6734993
 augmentation part       10.7989175 magnetization      77.6466228

 Broyden mixing:
  rms(total) = 0.16853E+01    rms(broyden)= 0.16852E+01
  rms(prec ) = 0.16882E+01
  weight for this iteration     100.00

 eigenvalues of (default mixing * dielectric matrix)
  average eigenvalue GAMMA=   1.4342
  2.6247  1.5988  0.8514  0.6618

 Free energy of the ion-electron system (eV)
  ---------------------------------------------------
  alpha Z        PSCENC =       131.99278517
  Ewald energy   TEWEN  =    183928.10526489
  -Hartree energ DENC   =   -197588.41146567
  -exchange      EXHF   =         0.00000000
  -V(xc)+E(xc)   XCENC  =      1673.98234272
  PAW double counting   =     49020.17618389   -49090.99302600
  entropy T*S    EENTRO =        -0.00641861
  eigenvalues    EBANDS =     -4922.34236129
  atomic energy  EATOM  =     16044.78385898
  Solvation  Ediel_sol  =         0.00000000
  ---------------------------------------------------
  free energy    TOTEN  =      -802.71283592 eV

  energy without entropy =     -802.70641731  energy(sigma->0) =     -802.70962661


--------------------------------------------------------------------------------------------------------




--------------------------------------- Iteration      1(  10)  ---------------------------------------


    POTLOK:  cpu time    0.2135: real time    0.2150
    SETDIJ:  cpu time    0.0186: real time    0.0188
     EDDAV:  cpu time   34.1285: real time   34.3974
       DOS:  cpu time    0.0065: real time    0.0066
    CHARGE:  cpu time    0.7915: real time    0.7984
    MIXING:  cpu time    0.0085: real time    0.0086
    --------------------------------------------
      LOOP:  cpu time   35.1671: real time   35.4448

 eigenvalue-minimisations  :  7930
 total energy-change (2. order) :-0.7768020E+02  (-0.3780206E+01)
 number of electron     444.9999341 magnetization      72.2808810
 augmentation part       10.7450890 magnetization      66.7063788

 Broyden mixing:
  rms(total) = 0.13137E+01    rms(broyden)= 0.13136E+01
  rms(prec ) = 0.13149E+01
  weight for this iteration     100.00

 eigenvalues of (default mixing * dielectric matrix)
  average eigenvalue GAMMA=   1.5730
  3.0865  2.3861  0.9600  0.8131  0.6193

 Free energy of the ion-electron system (eV)
  ---------------------------------------------------
  alpha Z        PSCENC =       131.99278517
  Ewald energy   TEWEN  =    183928.10526489
  -Hartree energ DENC   =   -197627.43232713
  -exchange      EXHF   =         0.00000000
  -V(xc)+E(xc)   XCENC  =      1626.87783179
  PAW double counting   =     50570.60337382   -50638.97522046
  entropy T*S    EENTRO =        -0.01540702
  eigenvalues    EBANDS =     -4916.33319162
  atomic energy  EATOM  =     16044.78385898
  Solvation  Ediel_sol  =         0.00000000
  ---------------------------------------------------
  free energy    TOTEN  =      -880.39303158 eV

  energy without entropy =     -880.37762456  energy(sigma->0) =     -880.38532807


--------------------------------------------------------------------------------------------------------




--------------------------------------- Iteration      1(  11)  ---------------------------------------


    POTLOK:  cpu time    0.2126: real time    0.2294
    SETDIJ:  cpu time    0.0207: real time    0.0209
     EDDAV:  cpu time   33.2906: real time   33.5699
       DOS:  cpu time    0.0061: real time    0.0062
    CHARGE:  cpu time    0.8093: real time    0.8173
    MIXING:  cpu time    0.0079: real time    0.0079
    --------------------------------------------
      LOOP:  cpu time   34.3473: real time   34.6517

 eigenvalue-minimisations  :  7760
 total energy-change (2. order) :-0.5822834E+02  (-0.3384330E+01)
 number of electron     444.9999337 magnetization      56.6569435
 augmentation part       10.6892544 magnetization      51.7348387

 Broyden mixing:
  rms(total) = 0.10301E+01    rms(broyden)= 0.10299E+01
  rms(prec ) = 0.10311E+01
  weight for this iteration     100.00

 eigenvalues of (default mixing * dielectric matrix)
  average eigenvalue GAMMA=   1.7537
  4.2017  2.5629  1.4490  0.9571  0.7374  0.6139

 Free energy of the ion-electron system (eV)
  ---------------------------------------------------
  alpha Z        PSCENC =       131.99278517
  Ewald energy   TEWEN  =    183928.10526489
  -Hartree energ DENC   =   -197638.08527951
  -exchange      EXHF   =         0.00000000
  -V(xc)+E(xc)   XCENC  =      1590.43765018
  PAW double counting   =     49899.77970011   -49966.96502241
  entropy T*S    EENTRO =        -0.01531486
  eigenvalues    EBANDS =     -4928.65501431
  atomic energy  EATOM  =     16044.78385898
  Solvation  Ediel_sol  =         0.00000000
  ---------------------------------------------------
  free energy    TOTEN  =      -938.62137175 eV

  energy without entropy =     -938.60605689  energy(sigma->0) =     -938.61371432


--------------------------------------------------------------------------------------------------------




--------------------------------------- Iteration      1(  12)  ---------------------------------------


    POTLOK:  cpu time    0.2129: real time    0.2146
    SETDIJ:  cpu time    0.0214: real time    0.0216
     EDDAV:  cpu time   33.0819: real time   33.3558
       DOS:  cpu time    0.0054: real time    0.0055
    CHARGE:  cpu time    0.8030: real time    0.8106
    MIXING:  cpu time    0.0075: real time    0.0075
    --------------------------------------------
      LOOP:  cpu time   34.1322: real time   34.4157

 eigenvalue-minimisations  :  7690
 total energy-change (2. order) :-0.5023554E+02  (-0.5321842E+01)
 number of electron     444.9999332 magnetization      44.8121108
 augmentation part       10.5861264 magnetization      40.4150621

 Broyden mixing:
  rms(total) = 0.67587E+00    rms(broyden)= 0.67563E+00
  rms(prec ) = 0.67763E+00
  weight for this iteration     100.00

 eigenvalues of (default mixing * dielectric matrix)
  average eigenvalue GAMMA=   2.2539
  7.9073  2.5879  2.0709  1.0622  0.8416  0.6993  0.6078

 Free energy of the ion-electron system (eV)
  ---------------------------------------------------
  alpha Z        PSCENC =       131.99278517
  Ewald energy   TEWEN  =    183928.10526489
  -Hartree energ DENC   =   -197636.80604556
  -exchange      EXHF   =         0.00000000
  -V(xc)+E(xc)   XCENC  =      1560.05316148
  PAW double counting   =     47362.11801893   -47429.59943829
  entropy T*S    EENTRO =        -0.00840657
  eigenvalues    EBANDS =     -4949.49611562
  atomic energy  EATOM  =     16044.78385898
  Solvation  Ediel_sol  =         0.00000000
  ---------------------------------------------------
  free energy    TOTEN  =      -988.85691659 eV

  energy without entropy =     -988.84851002  energy(sigma->0) =     -988.85271331


--------------------------------------------------------------------------------------------------------




--------------------------------------- Iteration      1(  13)  ---------------------------------------


    POTLOK:  cpu time    0.2116: real time    0.2708
    SETDIJ:  cpu time    0.0209: real time    0.0210
     EDDAV:  cpu time   34.6171: real time   34.8950
       DOS:  cpu time    0.0058: real time    0.0059
    CHARGE:  cpu time    0.8021: real time    0.8095
    MIXING:  cpu time    0.0094: real time    0.0248
    --------------------------------------------
      LOOP:  cpu time   35.6669: real time   36.0271

 eigenvalue-minimisations  :  8120
 total energy-change (2. order) :-0.1639139E+02  (-0.1296093E+01)
 number of electron     444.9999330 magnetization      40.5957569
 augmentation part       10.5609774 magnetization      36.5191701

 Broyden mixing:
  rms(total) = 0.51471E+00    rms(broyden)= 0.51457E+00
  rms(prec ) = 0.51693E+00
  weight for this iteration     100.00

 eigenvalues of (default mixing * dielectric matrix)
  average eigenvalue GAMMA=   2.2991
  9.3903  2.4206  2.4206  1.0525  1.0525  0.7770  0.6695  0.6099

 Free energy of the ion-electron system (eV)
  ---------------------------------------------------
  alpha Z        PSCENC =       131.99278517
  Ewald energy   TEWEN  =    183928.10526489
  -Hartree energ DENC   =   -197603.07434049
  -exchange      EXHF   =         0.00000000
  -V(xc)+E(xc)   XCENC  =      1546.78955181
  PAW double counting   =     46006.09386782   -46073.85282240
  entropy T*S    EENTRO =        -0.02158994
  eigenvalues    EBANDS =     -4986.06487802
  atomic energy  EATOM  =     16044.78385898
  Solvation  Ediel_sol  =         0.00000000
  ---------------------------------------------------
  free energy    TOTEN  =     -1005.24830218 eV

  energy without entropy =    -1005.22671224  energy(sigma->0) =    -1005.23750721


--------------------------------------------------------------------------------------------------------




--------------------------------------- Iteration      1(  14)  ---------------------------------------


    POTLOK:  cpu time    0.2110: real time    0.2129
    SETDIJ:  cpu time    0.0201: real time    0.0202
     EDDAV:  cpu time   34.6101: real time   34.8808
       DOS:  cpu time    0.0046: real time    0.0047
    CHARGE:  cpu time    0.8211: real time    0.8287
    MIXING:  cpu time    0.0145: real time    0.0146
    --------------------------------------------
      LOOP:  cpu time   35.6815: real time   35.9619

 eigenvalue-minimisations  :  7990
 total energy-change (2. order) :-0.5497817E+01  (-0.6252108E-01)
 number of electron     444.9999331 magnetization      32.9235516
 augmentation part       10.5406575 magnetization      28.8777635

 Broyden mixing:
  rms(total) = 0.45197E+00    rms(broyden)= 0.45195E+00
  rms(prec ) = 0.45359E+00
  weight for this iteration     100.00

 eigenvalues of (default mixing * dielectric matrix)
  average eigenvalue GAMMA=   2.3062
 10.1697  2.5457  2.5457  1.5041  0.9817  0.9817  0.7557  0.6610  0.6111

 Free energy of the ion-electron system (eV)
  ---------------------------------------------------
  alpha Z        PSCENC =       131.99278517
  Ewald energy   TEWEN  =    183928.10526489
  -Hartree energ DENC   =   -197583.90229735
  -exchange      EXHF   =         0.00000000
  -V(xc)+E(xc)   XCENC  =      1541.61774629
  PAW double counting   =     46348.52193303   -46416.52498408
  entropy T*S    EENTRO =        -0.02062055
  eigenvalues    EBANDS =     -5005.31980561
  atomic energy  EATOM  =     16044.78385898
  Solvation  Ediel_sol  =         0.00000000
  ---------------------------------------------------
  free energy    TOTEN  =     -1010.74611922 eV

  energy without entropy =    -1010.72549868  energy(sigma->0) =    -1010.73580895


--------------------------------------------------------------------------------------------------------




--------------------------------------- Iteration      1(  15)  ---------------------------------------


    POTLOK:  cpu time    0.2110: real time    0.2126
    SETDIJ:  cpu time    0.0206: real time    0.0207
     EDDAV:  cpu time   32.9007: real time   33.2031
       DOS:  cpu time    0.0014: real time    0.0644
    CHARGE:  cpu time    0.8056: real time    0.8134
    MIXING:  cpu time    0.0128: real time    0.0129
    --------------------------------------------
      LOOP:  cpu time   33.9521: real time   34.3271

 eigenvalue-minimisations  :  7640
 total energy-change (2. order) :-0.5323383E+01  (-0.7072358E-01)
 number of electron     444.9999331 magnetization      25.1419051
 augmentation part       10.5518093 magnetization      21.2510486

 Broyden mixing:
  rms(total) = 0.36723E+00    rms(broyden)= 0.36722E+00
  rms(prec ) = 0.36838E+00
  weight for this iteration     100.00

 eigenvalues of (default mixing * dielectric matrix)
  average eigenvalue GAMMA=   2.3912
 10.9267  3.4092  2.3156  2.3156  1.0716  1.0716  0.7950  0.7376  0.6125  0.6565

 Free energy of the ion-electron system (eV)
  ---------------------------------------------------
  alpha Z        PSCENC =       131.99278517
  Ewald energy   TEWEN  =    183928.10526489
  -Hartree energ DENC   =   -197490.70237254
  -exchange      EXHF   =         0.00000000
  -V(xc)+E(xc)   XCENC  =      1534.85347768
  PAW double counting   =     46201.80449045   -46269.81749938
  entropy T*S    EENTRO =        -0.02872979
  eigenvalues    EBANDS =     -5097.06077755
  atomic energy  EATOM  =     16044.78385898
  Solvation  Ediel_sol  =         0.00000000
  ---------------------------------------------------
  free energy    TOTEN  =     -1016.06950209 eV

  energy without entropy =    -1016.04077230  energy(sigma->0) =    -1016.05513720


--------------------------------------------------------------------------------------------------------




--------------------------------------- Iteration      1(  16)  ---------------------------------------


    POTLOK:  cpu time    0.2142: real time    0.2157
    SETDIJ:  cpu time    0.0197: real time    0.0198
     EDDAV:  cpu time   33.1855: real time   33.4540
       DOS:  cpu time    0.0024: real time    0.0024
    CHARGE:  cpu time    0.7915: real time    0.7993
    MIXING:  cpu time    0.0109: real time    0.0110
    --------------------------------------------
      LOOP:  cpu time   34.2242: real time   34.5022

 eigenvalue-minimisations  :  7740
 total energy-change (2. order) :-0.4920106E+01  (-0.4684910E-01)
 number of electron     444.9999331 magnetization      16.6793311
 augmentation part       10.5495187 magnetization      12.6782250

 Broyden mixing:
  rms(total) = 0.28425E+00    rms(broyden)= 0.28424E+00
  rms(prec ) = 0.28515E+00
  weight for this iteration     100.00

 eigenvalues of (default mixing * dielectric matrix)
  average eigenvalue GAMMA=   2.4577
 11.6198  4.5432  2.4160  2.4160  1.2326  1.0217  1.0217  0.7514  0.7514  0.6140
  0.6474

 Free energy of the ion-electron system (eV)
  ---------------------------------------------------
  alpha Z        PSCENC =       131.99278517
  Ewald energy   TEWEN  =    183928.10526489
  -Hartree energ DENC   =   -197429.82186020
  -exchange      EXHF   =         0.00000000
  -V(xc)+E(xc)   XCENC  =      1529.16592224
  PAW double counting   =     46354.26077826   -46422.19540231
  entropy T*S    EENTRO =        -0.02110403
  eigenvalues    EBANDS =     -5157.25985099
  atomic energy  EATOM  =     16044.78385898
  Solvation  Ediel_sol  =         0.00000000
  ---------------------------------------------------
  free energy    TOTEN  =     -1020.98960799 eV

  energy without entropy =    -1020.96850395  energy(sigma->0) =    -1020.97905597


--------------------------------------------------------------------------------------------------------




--------------------------------------- Iteration      1(  17)  ---------------------------------------


    POTLOK:  cpu time    0.2137: real time    0.2153
    SETDIJ:  cpu time    0.0198: real time    0.0199
     EDDAV:  cpu time   33.4019: real time   33.6686
       DOS:  cpu time    0.0014: real time    0.0014
    CHARGE:  cpu time    0.7978: real time    0.8051
    MIXING:  cpu time    0.0098: real time    0.0099
    --------------------------------------------
      LOOP:  cpu time   34.4444: real time   34.7202

 eigenvalue-minimisations  :  7750
 total energy-change (2. order) :-0.3830278E+01  (-0.2153233E-01)
 number of electron     444.9999331 magnetization       9.6638956
 augmentation part       10.5491069 magnetization       5.6485271

 Broyden mixing:
  rms(total) = 0.19062E+00    rms(broyden)= 0.19061E+00
  rms(prec ) = 0.19201E+00
  weight for this iteration     100.00

 eigenvalues of (default mixing * dielectric matrix)
  average eigenvalue GAMMA=   2.7658
 13.5577  6.8653  2.5741  2.5741  1.8925  1.0769  1.0769  0.8585  0.7303  0.7303
  0.6153  0.6382

 Free energy of the ion-electron system (eV)
  ---------------------------------------------------
  alpha Z        PSCENC =       131.99278517
  Ewald energy   TEWEN  =    183928.10526489
  -Hartree energ DENC   =   -197373.19073425
  -exchange      EXHF   =         0.00000000
  -V(xc)+E(xc)   XCENC  =      1525.28046080
  PAW double counting   =     46702.91137003   -46770.75529630
  entropy T*S    EENTRO =        -0.01864446
  eigenvalues    EBANDS =     -5213.92895097
  atomic energy  EATOM  =     16044.78385898
  Solvation  Ediel_sol  =         0.00000000
  ---------------------------------------------------
  free energy    TOTEN  =     -1024.81988611 eV

  energy without entropy =    -1024.80124165  energy(sigma->0) =    -1024.81056388


--------------------------------------------------------------------------------------------------------




--------------------------------------- Iteration      1(  18)  ---------------------------------------


    POTLOK:  cpu time    0.2140: real time    0.2333
    SETDIJ:  cpu time    0.0203: real time    0.0204
     EDDAV:  cpu time   33.5500: real time   33.8062
       DOS:  cpu time    0.0014: real time    0.0014
    CHARGE:  cpu time    0.7875: real time    0.7948
    MIXING:  cpu time    0.0134: real time    0.0134
    --------------------------------------------
      LOOP:  cpu time   34.5866: real time   34.8694

 eigenvalue-minimisations  :  7810
 total energy-change (2. order) :-0.4976439E+01  (-0.2493792E-01)
 number of electron     444.9999331 magnetization       6.6220070
 augmentation part       10.5505436 magnetization       2.6619265

 Broyden mixing:
  rms(total) = 0.10964E+00    rms(broyden)= 0.10963E+00
  rms(prec ) = 0.11173E+00
  weight for this iteration     100.00

 eigenvalues of (default mixing * dielectric matrix)
  average eigenvalue GAMMA=   2.9808
 16.2909  8.2997  2.6771  2.6771  2.1236  1.1072  1.1072  0.9433  0.7893  0.7893
  0.6991  0.6148  0.6314

 Free energy of the ion-electron system (eV)
  ---------------------------------------------------
  alpha Z        PSCENC =       131.99278517
  Ewald energy   TEWEN  =    183928.10526489
  -Hartree energ DENC   =   -197338.92867010
  -exchange      EXHF   =         0.00000000
  -V(xc)+E(xc)   XCENC  =      1520.63121739
  PAW double counting   =     46703.05797005   -46770.93469051
  entropy T*S    EENTRO =        -0.02258213
  eigenvalues    EBANDS =     -5248.48147885
  atomic energy  EATOM  =     16044.78385898
  Solvation  Ediel_sol  =         0.00000000
  ---------------------------------------------------
  free energy    TOTEN  =     -1029.79632511 eV

  energy without entropy =    -1029.77374298  energy(sigma->0) =    -1029.78503405


--------------------------------------------------------------------------------------------------------




--------------------------------------- Iteration      1(  19)  ---------------------------------------


    POTLOK:  cpu time    0.2140: real time    0.2157
    SETDIJ:  cpu time    0.0204: real time    0.0205
     EDDAV:  cpu time   32.8031: real time   33.0670
       DOS:  cpu time    0.0012: real time    0.0012
    CHARGE:  cpu time    0.7865: real time    0.7935
    MIXING:  cpu time    0.0109: real time    0.0109
    --------------------------------------------
      LOOP:  cpu time   33.8361: real time   34.1089

 eigenvalue-minimisations  :  7630
 total energy-change (2. order) :-0.2728348E+01  (-0.1418964E-01)
 number of electron     444.9999331 magnetization       5.1302255
 augmentation part       10.5506626 magnetization       1.2265188

 Broyden mixing:
  rms(total) = 0.68241E-01    rms(broyden)= 0.68236E-01
  rms(prec ) = 0.70566E-01
  weight for this iteration     100.00

 eigenvalues of (default mixing * dielectric matrix)
  average eigenvalue GAMMA=   3.1472
 19.1842  9.0233  2.9796  2.5906  2.2989  1.4272  1.0964  1.0964  0.9281  0.7551
  0.7551  0.6849  0.6137  0.6276

 Free energy of the ion-electron system (eV)
  ---------------------------------------------------
  alpha Z        PSCENC =       131.99278517
  Ewald energy   TEWEN  =    183928.10526489
  -Hartree energ DENC   =   -197340.61144214
  -exchange      EXHF   =         0.00000000
  -V(xc)+E(xc)   XCENC  =      1518.14997700
  PAW double counting   =     46578.29851958   -46646.23116533
  entropy T*S    EENTRO =        -0.02693283
  eigenvalues    EBANDS =     -5246.98553877
  atomic energy  EATOM  =     16044.78385898
  Solvation  Ediel_sol  =         0.00000000
  ---------------------------------------------------
  free energy    TOTEN  =     -1032.52467344 eV

  energy without entropy =    -1032.49774061  energy(sigma->0) =    -1032.51120702


--------------------------------------------------------------------------------------------------------




--------------------------------------- Iteration      1(  20)  ---------------------------------------


    POTLOK:  cpu time    0.2313: real time    0.2490
    SETDIJ:  cpu time    0.0204: real time    0.0206
     EDDAV:  cpu time   34.7477: real time   35.0150
       DOS:  cpu time    0.0015: real time    0.0015
    CHARGE:  cpu time    0.7921: real time    0.7993
    MIXING:  cpu time    0.0136: real time    0.0137
    --------------------------------------------
      LOOP:  cpu time   35.8067: real time   36.0991

 eigenvalue-minimisations  :  8190
 total energy-change (2. order) :-0.1383265E+01  (-0.5517292E-02)
 number of electron     444.9999331 magnetization       4.6719423
 augmentation part       10.5484194 magnetization       0.7663071

 Broyden mixing:
  rms(total) = 0.43087E-01    rms(broyden)= 0.43079E-01
  rms(prec ) = 0.44848E-01
  weight for this iteration     100.00

 eigenvalues of (default mixing * dielectric matrix)
  average eigenvalue GAMMA=   3.1734
 20.8487  9.3252  3.3435  2.4428  2.4428  1.7636  1.1298  1.1298  0.9022  0.8204
  0.8204  0.7303  0.6648  0.6120  0.6254

 Free energy of the ion-electron system (eV)
  ---------------------------------------------------
  alpha Z        PSCENC =       131.99278517
  Ewald energy   TEWEN  =    183928.10526489
  -Hartree energ DENC   =   -197356.68308016
[...]
   0.333E+03 -.646E-02 0.352E+03   -.334E+03 0.732E-02 -.352E+03   0.102E+00 0.397E-03 -.270E-01   0.143E-03 0.132E-04 -.209E-04
   -.152E+03 0.761E-03 0.373E+03   0.152E+03 -.914E-03 -.373E+03   -.106E-01 0.803E-04 -.221E-01   -.416E-04 0.273E-05 -.920E-04
   0.193E+03 -.288E-01 0.374E+03   -.194E+03 0.320E-01 -.374E+03   0.288E-01 0.464E-03 -.231E-01   0.104E-03 -.155E-06 -.211E-04
   -.278E+03 0.742E-02 0.350E+03   0.278E+03 -.650E-02 -.350E+03   -.183E-01 0.217E-03 -.282E-01   0.230E-03 0.315E-06 -.516E-04
   0.529E+03 -.140E-01 0.303E+03   -.530E+03 0.155E-01 -.303E+03   0.434E+00 -.379E-02 -.496E-01   -.984E-04 0.215E-05 0.333E-04
   -.377E+02 -.976E-02 0.382E+03   0.377E+02 0.118E-01 -.382E+03   -.242E-02 -.525E-03 -.208E-01   -.146E-03 0.706E-06 -.574E-04
   0.370E+02 0.586E-02 -.382E+03   -.370E+02 -.661E-02 0.382E+03   -.437E-02 0.614E-03 0.213E-01   -.166E-03 0.264E-05 0.593E-04
   -.530E+03 0.578E-02 -.304E+03   0.531E+03 -.643E-02 0.304E+03   -.450E+00 -.564E-04 0.421E-01   0.397E-03 0.552E-05 -.136E-03
   0.277E+03 -.527E-02 -.350E+03   -.277E+03 0.649E-02 0.350E+03   0.632E-02 0.114E-02 0.246E-01   0.179E-03 -.599E-05 0.354E-04
   -.194E+03 0.942E-03 -.374E+03   0.194E+03 -.109E-02 0.374E+03   -.369E-01 0.225E-04 0.182E-01   -.164E-05 0.282E-05 0.969E-04
   0.151E+03 -.258E-01 -.373E+03   -.151E+03 0.281E-01 0.373E+03   0.701E-02 0.429E-03 0.241E-01   0.400E-04 0.516E-06 0.477E-04
   -.334E+03 0.268E-01 -.352E+03   0.334E+03 -.279E-01 0.352E+03   -.105E+00 0.172E-02 0.270E-01   0.304E-03 0.737E-06 0.916E-05
   0.430E+03 -.544E-02 -.305E+03   -.430E+03 0.564E-02 0.305E+03   0.599E-01 -.453E-03 0.362E-01   0.799E-04 0.206E-06 -.469E-04
   -.749E+02 -.288E-01 -.382E+03   0.749E+02 0.299E-01 0.383E+03   -.128E-01 -.454E-03 0.199E-01   -.197E-03 0.427E-06 0.905E-04
   0.370E+02 0.297E-02 -.382E+03   -.370E+02 -.161E-02 0.382E+03   0.117E-02 0.654E-03 0.228E-01   -.148E-03 0.661E-06 0.597E-04
   -.530E+03 -.533E-02 -.303E+03   0.531E+03 0.543E-02 0.303E+03   -.453E+00 -.275E-02 0.459E-01   0.404E-03 -.760E-06 -.138E-03
   0.277E+03 0.625E-02 -.350E+03   -.277E+03 -.558E-02 0.350E+03   0.743E-02 0.801E-03 0.302E-01   0.210E-03 0.175E-06 0.360E-04
   -.194E+03 -.276E-01 -.374E+03   0.194E+03 0.310E-01 0.374E+03   -.332E-01 0.517E-03 0.232E-01   0.949E-05 0.863E-06 0.963E-04
   0.151E+03 0.334E-01 -.373E+03   -.151E+03 -.359E-01 0.373E+03   0.743E-02 -.664E-03 0.241E-01   0.286E-04 -.144E-04 0.485E-04
   -.334E+03 -.256E-01 -.352E+03   0.334E+03 0.265E-01 0.352E+03   -.105E+00 -.171E-02 0.271E-01   0.302E-03 -.276E-05 0.887E-05
   0.430E+03 0.117E-01 -.305E+03   -.430E+03 -.117E-01 0.305E+03   0.597E-01 0.383E-05 0.366E-01   0.125E-03 -.361E-04 -.441E-04
   -.749E+02 0.186E-01 -.382E+03   0.749E+02 -.195E-01 0.383E+03   -.120E-01 -.353E-03 0.198E-01   -.209E-03 -.767E-05 0.903E-04
   0.370E+02 -.499E-02 -.382E+03   -.370E+02 0.283E-02 0.382E+03   0.161E-02 0.638E-03 0.229E-01   -.165E-03 -.324E-05 0.592E-04
   -.530E+03 0.131E-01 -.303E+03   0.531E+03 -.142E-01 0.303E+03   -.454E+00 0.294E-02 0.458E-01   0.397E-03 -.493E-05 -.136E-03
   0.277E+03 0.516E-02 -.350E+03   -.277E+03 -.682E-02 0.350E+03   0.785E-02 -.660E-03 0.295E-01   0.179E-03 0.572E-05 0.356E-04
   -.194E+03 0.201E-01 -.374E+03   0.194E+03 -.224E-01 0.374E+03   -.329E-01 -.643E-03 0.234E-01   -.961E-06 -.371E-05 0.969E-04
   0.151E+03 0.329E-02 -.373E+03   -.151E+03 -.391E-02 0.373E+03   0.483E-02 -.532E-06 0.225E-01   0.279E-04 0.139E-04 0.486E-04
   -.334E+03 0.277E-03 -.352E+03   0.334E+03 -.898E-06 0.352E+03   -.107E+00 0.234E-03 0.273E-01   0.301E-03 0.210E-05 0.885E-05
   0.430E+03 -.989E-02 -.305E+03   -.430E+03 0.101E-01 0.305E+03   0.633E-01 -.685E-03 0.360E-01   0.127E-03 0.360E-04 -.441E-04
   -.749E+02 -.191E-02 -.382E+03   0.749E+02 0.170E-02 0.382E+03   -.131E-01 -.738E-03 0.201E-01   -.210E-03 0.719E-05 0.902E-04
   0.554E+03 0.745E-02 -.253E+03   -.555E+03 -.692E-02 0.253E+03   0.368E+00 0.234E-02 0.429E-01   -.138E-03 -.649E-06 -.120E-03
   0.554E+03 -.266E-01 -.253E+03   -.555E+03 0.267E-01 0.253E+03   0.374E+00 -.139E-02 0.429E-01   -.147E-03 0.770E-04 -.103E-03
   0.554E+03 0.227E-01 -.253E+03   -.555E+03 -.237E-01 0.253E+03   0.368E+00 -.132E-02 0.428E-01   -.145E-03 -.762E-04 -.102E-03
   -.556E+03 0.553E-02 0.253E+03   0.556E+03 -.528E-02 -.253E+03   -.386E+00 0.312E-02 -.402E-01   0.290E-03 0.349E-06 0.122E-03
   -.556E+03 -.117E-02 0.253E+03   0.556E+03 0.161E-02 -.253E+03   -.390E+00 0.117E-02 -.441E-01   0.314E-03 -.158E-04 0.122E-03
   -.556E+03 -.661E-02 0.253E+03   0.556E+03 0.741E-02 -.253E+03   -.386E+00 -.178E-02 -.403E-01   0.312E-03 0.152E-04 0.122E-03
   0.655E+03 -.281E-01 -.223E+03   -.656E+03 0.275E-01 0.223E+03   0.976E+00 -.402E-03 0.129E-01   -.266E-04 0.652E-04 -.151E-03
   0.655E+03 -.281E-01 -.223E+03   -.656E+03 0.299E-01 0.223E+03   0.974E+00 0.893E-03 0.124E-01   0.695E-04 -.838E-06 -.999E-04
   0.655E+03 0.593E-01 -.223E+03   -.656E+03 -.612E-01 0.223E+03   0.972E+00 -.299E-03 0.861E-02   -.254E-04 -.644E-04 -.150E-03
   -.657E+03 0.835E-02 0.222E+03   0.658E+03 -.965E-02 -.222E+03   -.102E+01 -.121E-02 -.205E-01   0.324E-04 0.116E-04 0.133E-03
   -.657E+03 -.130E-01 0.222E+03   0.658E+03 0.129E-01 -.222E+03   -.102E+01 -.438E-03 -.202E-01   0.391E-04 -.125E-06 0.134E-03
   -.657E+03 0.805E-02 0.222E+03   0.658E+03 -.816E-02 -.222E+03   -.102E+01 0.764E-03 -.204E-01   0.328E-04 -.112E-04 0.134E-03
   0.199E+03 -.217E-01 0.574E+02   -.205E+03 0.235E-01 -.574E+02   0.567E+01 -.534E-02 -.845E-01   -.812E-04 -.315E-06 0.312E-04
   0.199E+03 -.196E-01 0.574E+02   -.205E+03 0.198E-01 -.574E+02   0.567E+01 -.190E-03 -.853E-01   -.617E-04 0.249E-04 0.204E-04
   0.199E+03 0.411E-01 0.574E+02   -.205E+03 -.432E-01 -.574E+02   0.567E+01 0.547E-02 -.843E-01   -.621E-04 -.246E-04 0.204E-04
   -.200E+03 -.193E-01 -.574E+02   0.206E+03 0.212E-01 0.573E+02   -.567E+01 -.462E-02 0.830E-01   -.738E-04 0.824E-07 -.528E-04
   -.200E+03 0.102E-03 -.574E+02   0.206E+03 -.171E-03 0.573E+02   -.567E+01 -.340E-04 0.832E-01   -.738E-04 -.337E-06 -.535E-04
   -.200E+03 0.185E-01 -.574E+02   0.206E+03 -.203E-01 0.573E+02   -.567E+01 0.457E-02 0.830E-01   -.740E-04 0.268E-06 -.535E-04
   0.198E+03 -.485E-01 -.436E+02   -.203E+03 0.504E-01 0.436E+02   0.566E+01 -.397E-02 -.444E-01   -.103E-03 0.280E-04 -.643E-04
   0.198E+03 0.108E-01 -.436E+02   -.203E+03 -.123E-01 0.437E+02   0.566E+01 0.304E-02 -.446E-01   -.109E-03 0.153E-07 -.489E-04
   0.198E+03 0.343E-01 -.435E+02   -.203E+03 -.345E-01 0.436E+02   0.565E+01 0.182E-03 -.403E-01   -.103E-03 -.281E-04 -.641E-04
   -.198E+03 0.198E-02 0.431E+02   0.204E+03 -.204E-02 -.431E+02   -.566E+01 0.334E-03 0.231E-01   -.199E-03 0.278E-05 0.282E-04
   -.198E+03 0.137E-01 0.431E+02   0.204E+03 -.152E-01 -.431E+02   -.567E+01 0.337E-02 0.266E-01   -.202E-03 0.490E-07 0.287E-04
   -.198E+03 -.129E-01 0.431E+02   0.204E+03 0.144E-01 -.431E+02   -.566E+01 -.308E-02 0.266E-01   -.199E-03 -.280E-05 0.282E-04
   0.545E+02 0.145E-04 0.120E+01   -.545E+02 0.134E-04 -.119E+01   -.322E-01 0.380E-03 -.803E-02   0.436E-03 -.368E-07 0.899E-05
 -----------------------------------------------------------------------------------------------
   0.678E+00 -.122E-03 0.930E-01   -.146E-11 0.218E-12 0.223E-11   -.725E+00 -.943E-02 -.119E+00   0.748E-02 -.945E-07 -.281E-03


 POSITION                                       TOTAL-FORCE (eV/Angst)
 -----------------------------------------------------------------------------------
     18.53296      6.12896     12.13953         0.001362      0.005786      0.000973
     27.10306      6.12874     15.66412         0.004334      0.003721     -0.000531
     14.25267      6.12897     12.12929        -0.001478      0.002911      0.001760
     22.81485      6.12901     12.14286        -0.000133      0.002462      0.002633
     16.39274      4.90329     12.13610        -0.000893     -0.003782     -0.000564
     24.95788      4.90326     12.13714         0.001909     -0.000963      0.000715
     12.11282      4.90328     12.12680         0.003823     -0.004315      0.000735
     20.67358      4.90334     12.14241         0.002496     -0.005693     -0.001493
     18.53294      1.22608     12.13954         0.002240     -0.006328      0.000958
     27.10306      1.22544     15.66411         0.004479     -0.001670     -0.000722
     14.25267      1.22597     12.12930        -0.001178     -0.001106      0.001833
     22.81485      1.22606     12.14288        -0.000321     -0.004521      0.002313
     16.39279      0.00014     12.13528        -0.001034      0.000897      0.001174
     24.95774      0.00016     12.13679         0.002420      0.001303      0.002900
     12.11321      0.00014     12.12661        -0.001090      0.001178      0.001379
     20.67354      0.00016     12.14157         0.001154      0.000791      0.003054
     18.53296      3.67748     12.14037         0.002493      0.001455     -0.001127
     27.10342      3.67709     15.66427         0.004114      0.000472     -0.003219
     14.25244      3.67746     12.12996         0.004192      0.000075     -0.000356
     22.81495      3.67752     12.14343        -0.003672      0.000560      0.000026
     16.39276      2.45167     12.13613        -0.002675      0.003149     -0.000765
     24.95791      2.45179     12.13716         0.001021     -0.000605      0.000541
     12.11282      2.45163     12.12678         0.003265      0.003344      0.001253
     20.67359      2.45162     12.14238         0.002081      0.007683     -0.001104
      9.98677      6.12907     12.13704        -0.003191      0.004251      0.001249
     18.55647      6.12846     15.66142        -0.002522      0.006342     -0.002029
     14.27431      6.12862     15.66124         0.000292      0.000057     -0.002155
     22.83697      6.12861     15.67062        -0.001216      0.001253      0.001786
     16.41565      4.90287     15.65905        -0.001134     -0.003376     -0.000088
     24.97696      4.90292     15.67407        -0.002761     -0.002432     -0.001304
     12.13135      4.90287     15.66850        -0.003516     -0.001212     -0.001770
     20.69683      4.90292     15.66486        -0.002034     -0.003618      0.000701
      9.98672      1.22584     12.13708        -0.001483     -0.003456      0.001000
     18.55646      1.22561     15.66144        -0.002399     -0.006241     -0.002153
     14.27431      1.22558     15.66128        -0.000536     -0.001356     -0.002743
     22.83696      1.22562     15.67063        -0.001180     -0.000663      0.001758
     16.41572      7.35440     15.65994        -0.001613     -0.001546     -0.004226
     24.97647      7.35444     15.67424         0.006060      0.000185     -0.000787
     12.13149      7.35444     15.66897        -0.003699     -0.000335     -0.002136
     20.69679      7.35444     15.66564         0.000993      0.000287     -0.001473
      9.98633      3.67746     12.13688         0.002739     -0.000639      0.003397
     18.55639      3.67703     15.66072        -0.001607     -0.000104     -0.000662
     14.27428      3.67707     15.66077         0.001998      0.001149     -0.002963
     22.83711      3.67714     15.67030        -0.005870     -0.001453      0.000172
     16.41567      2.45124     15.65904        -0.001859      0.002842      0.000186
     24.97695      2.45132     15.67407        -0.002454      0.002677     -0.001385
     12.13132      2.45141     15.66852        -0.003190     -0.001175     -0.002146
     20.69684      2.45131     15.66485        -0.002636      0.003713      0.000860
     17.10603      6.12899     12.13699         0.000708      0.001612     -0.000590
     25.66756      6.12902     12.13296         0.001311      0.001194      0.001305
     12.82252      6.12894     12.12642         0.000644      0.001302     -0.000669
     21.38701      6.12904     12.14236        -0.002755      0.000980      0.001624
     14.96511      4.90326     12.13158        -0.003193     -0.003870      0.000034
     23.52751      4.90330     12.14207         0.000987     -0.001709      0.000325
     10.67089      4.90317     12.13134        -0.005126      0.002861     -0.000861
     19.24653      4.90329     12.14054        -0.000286     -0.002556      0.000405
     17.10603      1.22596     12.13703         0.000794     -0.000754     -0.000782
     25.66755      1.22597     12.13297         0.000948     -0.000952      0.001361
     12.82253      1.22599     12.12646         0.000094     -0.002300     -0.001224
     21.38697      1.22596     12.14235        -0.000069     -0.002263      0.001587
     14.96517      0.00018     12.13072        -0.002902     -0.001480      0.002402
     23.52737      0.00019     12.14163         0.003040      0.000830      0.000796
     10.67134      0.00014     12.13120        -0.005108     -0.000065      0.001789
     19.24644      0.00022     12.13969         0.002057     -0.001479      0.002095
     17.10601      3.67749     12.13780         0.001973     -0.000433     -0.002224
     25.66780      3.67753     12.13311         0.002364     -0.001210      0.005467
     12.82230      3.67744     12.12660         0.001501      0.001356      0.000739
     21.38705      3.67749     12.14286        -0.003381      0.000013      0.003146
     14.96512      2.45168     12.13157        -0.002554      0.003714      0.000286
     23.52752      2.45176     12.14207         0.001664      0.001218      0.000506
     10.67088      2.45173     12.13136        -0.005910     -0.002265     -0.000923
     19.24657      2.45173     12.14054        -0.001581      0.001552      0.000325
     17.84300      7.35437     15.66118        -0.003966     -0.000052     -0.000180
     26.41839      7.35443     15.67001         0.001920     -0.000628     -0.002127
     13.56172      7.35439     15.66343        -0.001187      0.002435     -0.003659
     22.12448      7.35444     15.66939        -0.000284     -0.000040     -0.002708
     15.70220      6.12860     15.65979         0.004191      0.002804     -0.000908
     24.26722      6.12859     15.67417        -0.001135      0.000735     -0.000360
     11.42170      6.12867     15.67317        -0.000179     -0.000178      0.000051
     19.98352      6.12863     15.66424        -0.002159      0.000750     -0.000200
     17.84279      2.45126     15.66033         0.003177      0.002086      0.001083
     26.41889      2.45137     15.66980         0.001162     -0.002565      0.000691
     13.56162      2.45133     15.66274        -0.000818      0.001561      0.000424
     22.12437      2.45132     15.66863         0.007745      0.003968      0.001651
     15.70221      1.22556     15.65981         0.003863     -0.003161     -0.000961
     24.26723      1.22566     15.67417        -0.001380     -0.000752     -0.000305
     11.42171      1.22558     15.67316         0.000800      0.000004      0.000216
     19.98351      1.22559     15.66425        -0.001101     -0.001140     -0.000243
     17.84281      4.90282     15.66033         0.002842     -0.001443      0.001113
     26.41894      4.90285     15.66981        -0.000402      0.001956      0.000654
     13.56162      4.90288     15.66274         0.000338     -0.002250     -0.000066
     22.12439      4.90290     15.66863         0.006876     -0.002909      0.001733
     15.70226      3.67707     15.65926        -0.000318     -0.000522     -0.002260
     24.26743      3.67712     15.67398        -0.001882      0.000591      0.000208
     11.42143      3.67715     15.67285         0.000078     -0.000341     -0.000531
     19.98350      3.67712     15.66359        -0.002097     -0.000867      0.000329
      9.97960      6.12860     15.68236        -0.001800      0.002952     -0.000985
      9.97914      3.67711     15.68201         0.005155     -0.001140     -0.000060
      9.97964      1.22555     15.68236        -0.001683     -0.002278     -0.001026
     27.10971      6.12897     12.12595         0.001468      0.003453      0.002722
     27.11017      3.67746     12.12646        -0.004826      0.001667     -0.000549
     27.10970      1.22597     12.12596        -0.000061     -0.000889      0.002622
      9.29465      4.90300     15.68666         0.005724     -0.001046     -0.001756
      9.29471      2.45115     15.68667         0.008929      0.002747     -0.001635
      9.29498      7.35444     15.68702         0.000726     -0.002035     -0.003958
     27.79449      0.00019     12.12331         0.001492     -0.002424     -0.000840
     27.79482      2.45160     12.12348        -0.006593     -0.000412     -0.000412
     27.79484      4.90333     12.12348        -0.005398      0.000704     -0.000492
      8.89362      6.12996     12.15181         0.003947     -0.003441      0.002444
      8.89323      3.67747     12.15180         0.002387      0.000064      0.002050
      8.89360      1.22495     12.15184         0.002491      0.003568      0.002597
     28.19618      6.12953     15.64955        -0.004548     -0.002657     -0.001918
     28.19658      3.67710     15.64968        -0.006390     -0.000024     -0.001575
     28.19619      1.22466     15.64955        -0.005229      0.002894     -0.001918
      8.20137      4.90363     15.69366        -0.006851     -0.002193     -0.000951
      8.20149      2.45062     15.69367        -0.009231      0.001656     -0.001192
      8.20156      7.35446     15.69330        -0.002653      0.000255      0.000429
     28.88791      0.00014     12.12011        -0.000468      0.000357     -0.001100
     28.88801      2.45102     12.11967         0.005854      0.001977     -0.000050
     28.88809      4.90386     12.11969         0.004725     -0.001531     -0.000035
      3.20146      2.44816     13.90597         0.015437      0.000487      0.001567
 -----------------------------------------------------------------------------------
    total drift:                               -0.039284     -0.009556     -0.026591


--------------------------------------------------------------------------------------------------------



  FREE ENERGIE OF THE ION-ELECTRON SYSTEM (eV)
  ---------------------------------------------------
  free  energy   TOTEN  =     -1041.13987378 eV

  energy  without entropy=    -1041.11563601  energy(sigma->0) =    -1041.12775489



--------------------------------------------------------------------------------------------------------


    POTLOK:  cpu time    0.2186: real time    0.2983


--------------------------------------------------------------------------------------------------------


 stress matrix after NEB project (eV)
    -12.51687     -0.00333     -0.25933
     -0.00333     23.65552     -0.00257
     -0.25933     -0.00257    -15.77709
  FORCES: max atom, RMS     0.015524    0.004609
  FORCE total and by dimension    0.050694    0.015437
  Stress total and by dimension   31.069386   23.655520
 writing wavefunctions
     LOOP+:  cpu time 1234.4873: real time 1245.6962
    4ORBIT:  cpu time    0.0000: real time    0.0000

 total amount of memory used by VASP MPI-rank0   280967. kBytes
=======================================================================

   base      :      30000. kBytes
   nonlr-proj:       4990. kBytes
   fftplans  :      14214. kBytes
   grid      :      37253. kBytes
   one-center:        190. kBytes
   wavefun   :     194320. kBytes

  
  
 General timing and accounting informations for this job:
 ========================================================
  
                  Total CPU time used (sec):     1265.977
                            User time (sec):     1257.290
                          System time (sec):        8.687
                         Elapsed time (sec):     1279.507
  
                   Maximum memory used (kb):      468104.
                   Average memory used (kb):           0.
  
                          Minor page faults:       863114
                          Major page faults:            2
                 Voluntary context switches:        15088
