 vasp.5.4.4.18Apr17-6-g9f103f2a35 (build Sep 10 2024 21:01:58) complex           
 executed on             LinuxGNU date 2025.04.14  16:08:23
 running on   40 total cores
 distrk:  each k-point on   40 cores,    1 groups
 distr:  one band on NCORES_PER_BAND=   4 cores,   10 groups


--------------------------------------------------------------------------------------------------------


 INCAR:
 POTCAR:    PAW_PBE C 08Apr2002                   
 POTCAR:    PAW_PBE H 15Jun2001                   
 POTCAR:    PAW_PBE Li 17Jan2003                  
 POTCAR:    PAW_PBE C 08Apr2002                   
   SHA256 =  253f7b50bb8d59471dbedb8285d89021f4a42ed1a2c5d38a03a736e69125dd95 C/
   COPYR  = (c) Copyright 08Apr2002 Georg Kresse                                
   COPYR  = This file is part of the software VASP. Any use, copying, and all ot
   COPYR  = If you do not have a valid VASP license, you may not use, copy or di
   VRHFIN =C: s2p2                                                              
   LEXCH  = PE                                                                  
   EATOM  =   147.1560 eV,   10.8157 Ry                                         
                                                                                
   TITEL  = PAW_PBE C 08Apr2002                                                 
   LULTRA =        F    use ultrasoft PP ?                                      
   IUNSCR =        1    unscreen: 0-lin 1-nonlin 2-no                           
   RPACOR =    1.200    partial core radius                                     
   POMASS =   12.011; ZVAL   =    4.000    mass and valenz                      
   RCORE  =    1.500    outmost cutoff radius                                   
   RWIGS  =    1.630; RWIGS  =    0.863    wigner-seitz radius (au A)           
   ENMAX  =  400.000; ENMIN  =  300.000 eV                                      
   ICORE  =        2    local potential                                         
   LCOR   =        T    correct aug charges                                     
   LPAW   =        T    paw PP                                                  
   EAUG   =  644.873                                                            
   DEXC   =    0.000                                                            
   RMAX   =    1.529    core radius for proj-oper                               
   RAUG   =    1.300    factor for augmentation sphere                          
   RDEP   =    1.501    radius for radial grids                                 
   RDEPT  =    1.300    core radius for aug-charge                              
                                                                                
   Atomic configuration                                                         
    4 entries                                                                   
     n  l   j            E        occ.                                          
     1  0  0.50      -273.3789   2.0000                                         
     2  0  0.50       -13.7508   2.0000                                         
     2  1  0.50        -5.2854   2.0000                                         
     3  2  1.50        -5.4423   0.0000                                         
   Description                                                                  
     l       E           TYP  RCUT    TYP  RCUT                                 
     0    -13.7508458     23  1.200                                             
     0     -8.2022199     23  1.200                                             
     1     -5.2854383     23  1.500                                             
     1     34.0145650     23  1.500                                             
     2     -5.4423304      7  1.500                                             
  local pseudopotential read in
  partial core-charges read in
  partial kinetic energy density read in
  atomic valenz-charges read in
  non local Contribution for L=           0  read in
    real space projection operators read in
  non local Contribution for L=           0  read in
    real space projection operators read in
  non local Contribution for L=           1  read in
    real space projection operators read in
  non local Contribution for L=           1  read in
    real space projection operators read in
    PAW grid and wavefunctions read in

   number of l-projection  operators is LMAX  =           4
   number of lm-projection operators is LMMAX =           8

 POTCAR:    PAW_PBE H 15Jun2001                   
   SHA256 =  030f79b5d3ab3cf0e668861823c8fb652ff669f3e15e46930bd03bfd63a607b6 H/
   COPYR  = (c) Copyright 15Jun2001 Georg Kresse                                
   COPYR  = This file is part of the software VASP. Any use, copying, and all ot
   COPYR  = If you do not have a valid VASP license, you may not use, copy or di
   VRHFIN =H: ultrasoft test                                                    
   LEXCH  = PE                                                                  
   EATOM  =    12.4884 eV,    0.9179 Ry                                         
                                                                                
   TITEL  = PAW_PBE H 15Jun2001                                                 
   LULTRA =        F    use ultrasoft PP ?                                      
   IUNSCR =        0    unscreen: 0-lin 1-nonlin 2-no                           
   RPACOR =    0.000    partial core radius                                     
   POMASS =    1.000; ZVAL   =    1.000    mass and valenz                      
   RCORE  =    1.100    outmost cutoff radius                                   
   RWIGS  =    0.700; RWIGS  =    0.370    wigner-seitz radius (au A)           
   ENMAX  =  250.000; ENMIN  =  200.000 eV                                      
   RCLOC  =    0.701    cutoff for local pot                                    
   LCOR   =        T    correct aug charges                                     
   LPAW   =        T    paw PP                                                  
   EAUG   =  400.000                                                            
   RMAX   =    1.123    core radius for proj-oper                               
   RAUG   =    1.200    factor for augmentation sphere                          
   RDEP   =    1.112    radius for radial grids                                 
   RDEPT  =    0.926    core radius for aug-charge                              
                                                                                
   Atomic configuration                                                         
    2 entries                                                                   
     n  l   j            E        occ.                                          
     1  0  0.50        -6.4927   1.0000                                         
     2  1  0.50        -3.4015   0.0000                                         
   Description                                                                  
     l       E           TYP  RCUT    TYP  RCUT                                 
     0     -6.4927494     23  1.100                                             
     0      6.8029130     23  1.100                                             
     1     -4.0817478     23  1.100                                             
  local pseudopotential read in
  atomic valenz-charges read in
  non local Contribution for L=           0  read in
    real space projection operators read in
  non local Contribution for L=           0  read in
    real space projection operators read in
  non local Contribution for L=           1  read in
    real space projection operators read in
    PAW grid and wavefunctions read in

   number of l-projection  operators is LMAX  =           3
   number of lm-projection operators is LMMAX =           5

 POTCAR:    PAW_PBE Li 17Jan2003                  
   SHA256 =  3d9d9bfd1dd25b20a3b919cb3191e6ef627605783dc2e149b9290ff31c32aa6e Li
   COPYR  = (c) Copyright 17Jan2003 Georg Kresse                                
   COPYR  = This file is part of the software VASP. Any use, copying, and all ot
   COPYR  = If you do not have a valid VASP license, you may not use, copy or di
   VRHFIN =Li: s1p0                                                             
   LEXCH  = PE                                                                  
   EATOM  =     5.3001 eV,    0.3895 Ry                                         
                                                                                
   TITEL  = PAW_PBE Li 17Jan2003                                                
   LULTRA =        F    use ultrasoft PP ?                                      
   IUNSCR =        1    unscreen: 0-lin 1-nonlin 2-no                           
   RPACOR =    1.500    partial core radius                                     
   POMASS =    7.010; ZVAL   =    1.000    mass and valenz                      
   RCORE  =    2.050    outmost cutoff radius                                   
   RWIGS  =    2.600; RWIGS  =    1.376    wigner-seitz radius (au A)           
   ENMAX  =  140.000; ENMIN  =  100.000 eV                                      
   ICORE  =        2    local potential                                         
   LCOR   =        T    correct aug charges                                     
   LPAW   =        T    paw PP                                                  
   EAUG   =  331.638                                                            
   DEXC   =    0.000                                                            
   RMAX   =    2.098    core radius for proj-oper                               
   RAUG   =    1.300    factor for augmentation sphere                          
   RDEP   =    2.094    radius for radial grids                                 
   RDEPT  =    1.810    core radius for aug-charge                              
                                                                                
   Atomic configuration                                                         
    4 entries                                                                   
     n  l   j            E        occ.                                          
     1  0  0.50       -51.8549   2.0000                                         
     2  0  0.50        -2.8742   1.0000                                         
     2  1  0.50        -1.3606   0.0000                                         
     3  2  1.50        -1.3606   0.0000                                         
   Description                                                                  
     l       E           TYP  RCUT    TYP  RCUT                                 
     0     -2.8742052     23  2.050                                             
     0     27.2116520     23  2.050                                             
     1     -1.3605826     23  2.050                                             
     2     -1.3605826     23  2.050                                             
  local pseudopotential read in
  partial core-charges read in
  partial kinetic energy density read in
  atomic valenz-charges read in
  non local Contribution for L=           0  read in
    real space projection operators read in
  non local Contribution for L=           0  read in
    real space projection operators read in
  non local Contribution for L=           1  read in
    real space projection operators read in
    PAW grid and wavefunctions read in

   number of l-projection  operators is LMAX  =           3
   number of lm-projection operators is LMMAX =           5

 Optimization of the real space projectors (new method)

 maximal supplied QI-value         = 25.13
 optimisation between [QCUT,QGAM] = [ 10.05, 20.36] = [ 28.30,116.06] Ry 
 Optimized for a Real-space Cutoff    1.30 Angstroem

   l    n(q)    QCUT    max X(q) W(low)/X(q) W(high)/X(q)  e(spline) 
   0      8    10.053   115.676    0.49E-03    0.72E-03    0.18E-06
   0      8    10.053    87.132    0.49E-03    0.71E-03    0.18E-06
   1      7    10.053     4.429    0.32E-03    0.31E-03    0.18E-06
   1      7    10.053     2.733    0.23E-03    0.19E-03    0.20E-06
 Optimization of the real space projectors (new method)

 maximal supplied QI-value         = 34.20
 optimisation between [QCUT,QGAM] = [  9.92, 20.18] = [ 27.55,114.04] Ry 
 Optimized for a Real-space Cutoff    1.26 Angstroem

   l    n(q)    QCUT    max X(q) W(low)/X(q) W(high)/X(q)  e(spline) 
   0      8     9.919    19.460    0.50E-03    0.23E-03    0.29E-06
   0      8     9.919    12.209    0.48E-03    0.23E-03    0.28E-06
   1      7     9.919     4.655    0.17E-03    0.75E-03    0.30E-06
 Optimization of the real space projectors (new method)

 maximal supplied QI-value         = 18.33
 optimisation between [QCUT,QGAM] = [ 10.08, 20.35] = [ 28.46,115.93] Ry 
 Optimized for a Real-space Cutoff    1.16 Angstroem

   l    n(q)    QCUT    max X(q) W(low)/X(q) W(high)/X(q)  e(spline) 
   0      7    10.082    33.825    0.44E-03    0.14E-03    0.78E-07
   0      7    10.082     8.944    0.33E-03    0.12E-03    0.56E-07
   1      6    10.082     4.214    0.33E-03    0.37E-03    0.39E-07
  PAW_PBE C 08Apr2002                   :
 energy of atom  1       EATOM= -147.1560
 kinetic energy error for atom=    0.0288 (will be added to EATOM!!)
  PAW_PBE H 15Jun2001                   :
 energy of atom  2       EATOM=  -12.4884
 kinetic energy error for atom=    0.0098 (will be added to EATOM!!)
  PAW_PBE Li 17Jan2003                  :
 energy of atom  3       EATOM=   -5.3001
 kinetic energy error for atom=    0.0000 (will be added to EATOM!!)


 POSCAR: C4                                      
  positions in direct lattice
  velocities in cartesian coordinates
 exchange correlation table for  LEXCH =        8
   RHO(1)=    0.500       N(1)  =     2000
   RHO(2)=  100.500       N(2)  =     4000

 VTST: version 3.2, (02/03/18)

 CHAIN: initializing optimizer
 
 OPT: Using VASP Conjugate-Gradient optimizer
 CHAIN: Read ICHAIN            0

 POSCAR: C4                                      
  positions in direct lattice
  velocities in cartesian coordinates



--------------------------------------------------------------------------------------------------------


 ion  position               nearest neighbor table
   1  0.500  0.833  0.437-  56 1.42  64 1.42  49 1.43
   2  0.731  0.833  0.563- 112 1.09  90 1.40  74 1.40
   3  0.384  0.833  0.436-  53 1.42  61 1.42  51 1.43
   4  0.615  0.833  0.437-  54 1.42  62 1.42  52 1.43
   5  0.442  0.667  0.437-  49 1.42  65 1.42  53 1.43
   6  0.673  0.667  0.437-  50 1.42  66 1.42  54 1.43
   7  0.327  0.667  0.436-  51 1.42  67 1.42  55 1.44
   8  0.557  0.667  0.437-  52 1.42  68 1.42  56 1.43
   9  0.500  0.167  0.437-  72 1.42  64 1.42  57 1.43
  10  0.731  0.167  0.563- 114 1.09  74 1.40  82 1.40
  11  0.384  0.167  0.436-  69 1.42  61 1.42  59 1.43
  12  0.615  0.167  0.437-  70 1.42  62 1.42  60 1.43
  13  0.442  0.000  0.436-  49 1.42  57 1.42  61 1.43
  14  0.673  0.000  0.437-  50 1.42  58 1.42  62 1.43
  15  0.327  0.000  0.436-  51 1.42  59 1.42  63 1.44
  16  0.557  0.000  0.437-  52 1.42  60 1.42  64 1.43
  17  0.500  0.500  0.437-  72 1.42  56 1.42  65 1.43
  18  0.731  0.500  0.563- 113 1.09  82 1.40  90 1.40
  19  0.384  0.500  0.436-  69 1.42  53 1.42  67 1.43
  20  0.615  0.500  0.437-  70 1.42  54 1.42  68 1.43
  21  0.442  0.333  0.437-  57 1.42  65 1.42  69 1.43
  22  0.673  0.333  0.437-  58 1.42  66 1.42  70 1.43
  23  0.327  0.333  0.436-  59 1.42  67 1.42  71 1.44
  24  0.557  0.333  0.437-  60 1.42  68 1.42  72 1.43
  25  0.269  0.833  0.437- 109 1.09  55 1.40  63 1.40
  26  0.500  0.833  0.563-  89 1.42  73 1.42  80 1.43
  27  0.385  0.833  0.563-  75 1.42  91 1.42  77 1.43
  28  0.616  0.833  0.564-  92 1.42  76 1.42  78 1.43
  29  0.443  0.667  0.563-  77 1.42  93 1.42  89 1.43
  30  0.673  0.667  0.564-  78 1.42  94 1.42  90 1.44
  31  0.327  0.667  0.564-  79 1.42  95 1.42  91 1.43
  32  0.558  0.667  0.563-  80 1.42  96 1.42  92 1.43
  33  0.269  0.167  0.437- 111 1.09  71 1.40  63 1.40
  34  0.500  0.167  0.563-  81 1.42  73 1.42  88 1.43
  35  0.385  0.167  0.563-  83 1.42  75 1.42  85 1.43
  36  0.616  0.167  0.564-  84 1.42  76 1.42  86 1.43
  37  0.443  1.000  0.563-  85 1.42  77 1.42  73 1.43
  38  0.673  1.000  0.564-  78 1.42  86 1.42  74 1.44
  39  0.327  1.000  0.564-  79 1.42  87 1.42  75 1.43
  40  0.558  1.000  0.563-  88 1.42  80 1.42  76 1.43
  41  0.269  0.500  0.437- 110 1.09  55 1.40  71 1.40
  42  0.500  0.500  0.563-  81 1.42  89 1.42  96 1.43
  43  0.385  0.500  0.563-  83 1.42  91 1.42  93 1.43
  44  0.616  0.500  0.564-  92 1.42  84 1.42  94 1.43
  45  0.443  0.333  0.563-  85 1.42  93 1.42  81 1.43
  46  0.673  0.333  0.564-  86 1.42  94 1.42  82 1.44
  47  0.327  0.333  0.564-  87 1.42  95 1.42  83 1.43
  48  0.558  0.333  0.563-  88 1.42  96 1.42  84 1.43
  49  0.461  0.833  0.437-   5 1.42  13 1.42   1 1.43
  50  0.692  0.833  0.436-   6 1.42  14 1.42 100 1.44
  51  0.346  0.833  0.436-  15 1.42   7 1.42   3 1.43
  52  0.577  0.833  0.437-   8 1.42  16 1.42   4 1.43
  53  0.403  0.667  0.436-   3 1.42  19 1.42   5 1.43
  54  0.634  0.667  0.437-   4 1.42  20 1.42   6 1.43
  55  0.288  0.667  0.436-  25 1.40  41 1.40   7 1.44
  56  0.519  0.667  0.437-   1 1.42  17 1.42   8 1.43
  57  0.461  0.167  0.437-  21 1.42  13 1.42   9 1.43
  58  0.692  0.167  0.436-  22 1.42  14 1.42 102 1.44
  59  0.346  0.167  0.436-  15 1.42  23 1.42  11 1.43
  60  0.577  0.167  0.437-  24 1.42  16 1.42  12 1.43
  61  0.403  0.000  0.436-  11 1.42   3 1.42  13 1.43
  62  0.634  0.000  0.437-   4 1.42  12 1.42  14 1.43
  63  0.288  0.000  0.436-  25 1.40  33 1.40  15 1.44
  64  0.519  0.000  0.437-   9 1.42   1 1.42  16 1.43
  65  0.461  0.500  0.437-  21 1.42   5 1.42  17 1.43
  66  0.692  0.500  0.436-  22 1.42   6 1.42 101 1.44
  67  0.346  0.500  0.436-  23 1.42   7 1.42  19 1.43
  68  0.577  0.500  0.437-   8 1.42  24 1.42  20 1.43
  69  0.403  0.333  0.436-  11 1.42  19 1.42  21 1.43
  70  0.634  0.333  0.437-  12 1.42  20 1.42  22 1.43
  71  0.288  0.333  0.436-  33 1.40  41 1.40  23 1.44
  72  0.519  0.333  0.437-   9 1.42  17 1.42  24 1.43
  73  0.481  1.000  0.563-  34 1.42  26 1.42  37 1.43
  74  0.712  1.000  0.564-  10 1.40   2 1.40  38 1.44
  75  0.366  1.000  0.563-  27 1.42  35 1.42  39 1.43
  76  0.596  1.000  0.564-  36 1.42  28 1.42  40 1.43
  77  0.423  0.833  0.563-  29 1.42  37 1.42  27 1.43
  78  0.654  0.833  0.564-  38 1.42  30 1.42  28 1.43
  79  0.308  0.833  0.564-  31 1.42  39 1.42  97 1.44
  80  0.539  0.833  0.563-  32 1.42  40 1.42  26 1.43
  81  0.481  0.333  0.563-  34 1.42  42 1.42  45 1.43
  82  0.712  0.333  0.564-  18 1.40  10 1.40  46 1.44
  83  0.366  0.333  0.563-  43 1.42  35 1.42  47 1.43
  84  0.596  0.333  0.564-  36 1.42  44 1.42  48 1.43
  85  0.423  0.167  0.563-  45 1.42  37 1.42  35 1.43
  86  0.654  0.167  0.564-  38 1.42  46 1.42  36 1.43
  87  0.308  0.167  0.564-  47 1.42  39 1.42  99 1.44
  88  0.539  0.167  0.563-  48 1.42  40 1.42  34 1.43
  89  0.481  0.667  0.563-  26 1.42  42 1.42  29 1.43
  90  0.712  0.667  0.564-   2 1.40  18 1.40  30 1.44
  91  0.366  0.667  0.563-  27 1.42  43 1.42  31 1.43
  92  0.596  0.667  0.564-  28 1.42  44 1.42  32 1.43
  93  0.423  0.500  0.563-  29 1.42  45 1.42  43 1.43
  94  0.654  0.500  0.564-  46 1.42  30 1.42  44 1.43
  95  0.308  0.500  0.564-  47 1.42  31 1.42  98 1.44
  96  0.539  0.500  0.563-  32 1.42  48 1.42  42 1.43
  97  0.269  0.833  0.564- 103 1.40 105 1.40  79 1.44
  98  0.269  0.500  0.564- 103 1.40 104 1.40  95 1.44
  99  0.269  0.167  0.564- 104 1.40 105 1.40  87 1.44
 100  0.731  0.833  0.436- 108 1.40 106 1.40  50 1.44
 101  0.731  0.500  0.436- 107 1.40 108 1.40  66 1.44
 102  0.731  0.167  0.436- 106 1.40 107 1.40  58 1.44
 103  0.251  0.667  0.564- 115 1.09  97 1.40  98 1.40
 104  0.251  0.333  0.564- 116 1.09  99 1.40  98 1.40
 105  0.251  1.000  0.564- 117 1.09  99 1.40  97 1.40
 106  0.749  0.000  0.436- 118 1.09 102 1.40 100 1.40
 107  0.749  0.333  0.436- 119 1.09 101 1.40 102 1.40
 108  0.749  0.667  0.436- 120 1.09 101 1.40 100 1.40
 109  0.240  0.833  0.437-  25 1.09
 110  0.240  0.500  0.437-  41 1.09
 111  0.240  0.167  0.437-  33 1.09
 112  0.760  0.833  0.563-   2 1.09
 113  0.760  0.500  0.563-  18 1.09
 114  0.760  0.167  0.563-  10 1.09
 115  0.221  0.667  0.564- 103 1.09
 116  0.221  0.333  0.564- 104 1.09 121 2.05
 117  0.221  1.000  0.564- 105 1.09
 118  0.779  0.000  0.436- 106 1.09
 119  0.779  0.333  0.436- 107 1.09
 120  0.779  0.667  0.436- 108 1.09
 121  0.194  0.333  0.500- 116 2.05

  LATTYP: Found a simple orthorhombic cell.
 ALAT       =     7.3546423912
 B/A-ratio  =     3.7803434082
 C/A-ratio  =     5.0436007255
  
  Lattice vectors:
  
 A1 = (   0.0000000000,   7.3546423912,   0.0000000000)
 A2 = (   0.0000000000,   0.0000000000, -27.8030738831)
 A3 = ( -37.0938796997,   0.0000000000,   0.0000000000)


Analysis of symmetry for initial positions (statically):
=====================================================================
 Subroutine PRICEL returns:
 Original cell was already a primitive cell.
 

 Routine SETGRP: Setting up the symmetry group for a 
 simple orthorhombic supercell.


 Subroutine GETGRP returns: Found  1 space group operations
 (whereof  1 operations were pure point group operations)
 out of a pool of  8 trial point group operations.


The static configuration has the point symmetry C_1 .


Analysis of symmetry for dynamics (positions and initial velocities):
=====================================================================
 Subroutine PRICEL returns:
 Original cell was already a primitive cell.
 

 Routine SETGRP: Setting up the symmetry group for a 
 simple orthorhombic supercell.


 Subroutine GETGRP returns: Found  1 space group operations
 (whereof  1 operations were pure point group operations)
 out of a pool of  8 trial point group operations.


The dynamic configuration has the point symmetry C_1 .


Analysis of structural, dynamic, and magnetic symmetry:
=====================================================================
 Subroutine PRICEL returns:
 Original cell was already a primitive cell.
 

 Routine SETGRP: Setting up the symmetry group for a 
 simple orthorhombic supercell.


 Subroutine GETGRP returns: Found  1 space group operations
 (whereof  1 operations were pure point group operations)
 out of a pool of  8 trial point group operations.


The magnetic configuration has the point symmetry C_1 .


 Subroutine INISYM returns: Found  1 space group operations
 (whereof  1 operations are pure point group operations),
 and found     1 'primitive' translations



 KPOINTS: Regular k-point mesh                    

Automatic generation of k-mesh.
Space group operators:
 irot       det(A)        alpha          n_x          n_y          n_z        tau_x        tau_y        tau_z
    1     1.000000     0.000000     1.000000     0.000000     0.000000     0.000000     0.000000     0.000000
 
 Subroutine IBZKPT returns following result:
 ===========================================
 
 Found      5 irreducible k-points:
 
 Following reciprocal coordinates:
            Coordinates               Weight
  0.000000  0.000000  0.000000      1.000000
  0.000000  0.125000  0.000000      2.000000
  0.000000  0.250000  0.000000      2.000000
  0.000000  0.375000  0.000000      2.000000
  0.000000  0.500000  0.000000      1.000000
 
 Following cartesian coordinates:
            Coordinates               Weight
  0.000000  0.000000  0.000000      1.000000
  0.000000  0.016996  0.000000      2.000000
  0.000000  0.033992  0.000000      2.000000
  0.000000  0.050988  0.000000      2.000000
  0.000000  0.067984  0.000000      1.000000
 


--------------------------------------------------------------------------------------------------------




 Dimension of arrays:
   k-points           NKPTS =      5   k-points in BZ     NKDIM =      5   number of bands    NBANDS=    350
   number of dos      NEDOS =    301   number of ions     NIONS =    121
   non local maximal  LDIM  =      4   non local SUM 2l+1 LMDIM =      8
   total plane-waves  NPLWV = 967680
   max r-space proj   IRMAX =   1227   max aug-charges    IRDMAX=   4281
   dimension x,y,z NGX =   192 NGY =   36 NGZ =  140
   dimension x,y,z NGXF=   384 NGYF=   72 NGZF=  280
   support grid    NGXF=   384 NGYF=   72 NGZF=  280
   ions per type =             108  12   1
   NGX,Y,Z   is equivalent  to a cutoff of   8.60,  8.14,  8.37 a.u.
   NGXF,Y,Z  is equivalent  to a cutoff of  17.21, 16.28, 16.74 a.u.

 SYSTEM =  unknown system                          
 POSCAR =  C4                                      

 Startparameter for this run:
   NWRITE =      2    write-flag & timer
   PREC   = normal    normal or accurate (medium, high low for compatibility)
   ISTART =      0    job   : 0-new  1-cont  2-samecut
   ICHARG =      2    charge: 1-file 2-atom 10-const
   ISPIN  =      2    spin polarized calculation?
   LNONCOLLINEAR =      F non collinear calculations
   LSORBIT =      F    spin-orbit coupling
   INIWAV =      1    electr: 0-lowe 1-rand  2-diag
   LASPH  =      F    aspherical Exc in radial PAW
   METAGGA=      F    non-selfconsistent MetaGGA calc.

 Electronic Relaxation 1
   ENCUT  =  400.0 eV  29.40 Ry    5.42 a.u.  60.49 11.99 45.34*2*pi/ulx,y,z
   ENINI  =  400.0     initial cutoff
   ENAUG  =  644.9 eV  augmentation charge cutoff
   NELM   =    100;   NELMIN=  2; NELMDL= -5     # of ELM steps 
   EDIFF  = 0.1E-03   stopping-criterion for ELM
   LREAL  =      T    real-space projection
   NLSPLINE    = F    spline interpolate recip. space projectors
   LCOMPAT=      F    compatible to vasp.4.4
   GGA_COMPAT  = T    GGA compatible to vasp.4.4-vasp.4.6
   LMAXPAW     = -100 max onsite density
   LMAXMIX     =    2 max onsite mixed and CHGCAR
   VOSKOWN=      0    Vosko Wilk Nusair interpolation
   ROPT   =   -0.00050  -0.00050  -0.00050
 Ionic relaxation
   EDIFFG = -.1E-01   stopping-criterion for IOM
   NSW    =      0    number of steps for IOM
   NBLOCK =      1;   KBLOCK =      1    inner block; outer block 
   IBRION =     -1    ionic relax: 0-MD 1-quasi-New 2-CG
   NFREE  =      1    steps in history (QN), initial steepest desc. (CG)
   ISIF   =      2    stress and relaxation
   IWAVPR =     10    prediction:  0-non 1-charg 2-wave 3-comb
   ISYM   =      2    0-nonsym 1-usesym 2-fastsym
   LCORR  =      T    Harris-Foulkes like correction to forces

   POTIM  = 0.5000    time-step for ionic-motion
   TEIN   =    0.0    initial temperature
   TEBEG  =    0.0;   TEEND  =   0.0 temperature during run
   SMASS  =  -3.00    Nose mass-parameter (am)
   estimated Nose-frequenzy (Omega)   =  0.10E-29 period in steps =****** mass=  -0.314E-25a.u.
   SCALEE = 1.0000    scale energy and forces
   NPACO  =    256;   APACO  = 16.0  distance and # of slots for P.C.
   PSTRESS=    0.0 pullay stress

  Mass of Ions in am
   POMASS =  12.01  1.00  7.01
  Ionic Valenz
   ZVAL   =   4.00  1.00  1.00
  Atomic Wigner-Seitz radii
   RWIGS  =  -1.00 -1.00 -1.00
  virtual crystal weights 
   VCA    =   1.00  1.00  1.00
   NELECT =     445.0000    total number of electrons
   NUPDOWN=      -1.0000    fix difference up-down

 DOS related values:
   EMIN   =  10.00;   EMAX   =-10.00  energy-range for DOS
   EFERMI =   0.00
   ISMEAR =     0;   SIGMA  =   0.10  broadening in eV -4-tet -1-fermi 0-gaus

 Electronic relaxation 2 (details)
   IALGO  =     38    algorithm
   LDIAG  =      T    sub-space diagonalisation (order eigenvalues)
   LSUBROT=      F    optimize rotation matrix (better conditioning)
   TURBO    =      0    0=normal 1=particle mesh
   IRESTART =      0    0=no restart 2=restart with 2 vectors
   NREBOOT  =      0    no. of reboots
   NMIN     =      0    reboot dimension
   EREF     =   0.00    reference energy to select bands
   IMIX   =      4    mixing-type and parameters
     AMIX     =   0.40;   BMIX     =  1.00
     AMIX_MAG =   1.60;   BMIX_MAG =  1.00
     AMIN     =   0.10
     WC   =   100.;   INIMIX=   1;  MIXPRE=   1;  MAXMIX= -45

 Intra band minimization:
   WEIMIN = 0.0000     energy-eigenvalue tresh-hold
   EBREAK =  0.71E-07  absolut break condition
   DEPER  =   0.30     relativ break condition  

   TIME   =   0.40     timestep for ELM

  volume/ion in A,a.u.               =      62.69       423.03
  Fermi-wavevector in a.u.,A,eV,Ry     =   0.636125  1.202102  5.505670  0.404655
  Thomas-Fermi vector in A             =   1.700690

 Write flags
   LWAVE        =      T    write WAVECAR
   LDOWNSAMPLE  =      F    k-point downsampling of WAVECAR
   LCHARG       =      T    write CHGCAR
   LVTOT        =      F    write LOCPOT, total local potential
   LVHAR        =      F    write LOCPOT, Hartree potential only
   LELF         =      F    write electronic localiz. function (ELF)
   LORBIT       =      0    0 simple, 1 ext, 2 COOP (PROOUT), +10 PAW based schemes


 Dipole corrections
   LMONO  =      F    monopole corrections only (constant potential shift)
   LDIPOL =      F    correct potential (dipole corrections)
   IDIPOL =      0    1-x, 2-y, 3-z, 4-all directions 
   EPSILON=  1.0000000 bulk dielectric constant

 Exchange correlation treatment:
   GGA     =    --    GGA type
   LEXCH   =     8    internal setting for exchange type
   VOSKOWN=      0    Vosko Wilk Nusair interpolation
   LHFCALC =     F    Hartree Fock is set to
   LHFONE  =     F    Hartree Fock one center treatment
   AEXX    =    0.0000 exact exchange contribution

 Linear response parameters
   LEPSILON=     F    determine dielectric tensor
   LRPA    =     F    only Hartree local field effects (RPA)
   LNABLA  =     F    use nabla operator in PAW spheres
   LVEL    =     F    velocity operator in full k-point grid
   LINTERFAST=   F  fast interpolation
   KINTER  =     0    interpolate to denser k-point grid
   CSHIFT  =0.1000    complex shift for real part using Kramers Kronig
   OMEGAMAX=  -1.0    maximum frequency
   DEG_THRESHOLD= 0.2000000E-02 threshold for treating states as degnerate
   RTIME   =   -0.100 relaxation time in fs
  (WPLASMAI=    0.000 imaginary part of plasma frequency in eV, 0.658/RTIME)
   DFIELD  = 0.0000000 0.0000000 0.0000000 field for delta impulse in time

 Orbital magnetization related:
   ORBITALMAG=     F  switch on orbital magnetization
   LCHIMAG   =     F  perturbation theory with respect to B field
   DQ        =  0.001000  dq finite difference perturbation B field
   LLRAUG    =     F  two centre corrections for induced B field



--------------------------------------------------------------------------------------------------------


 Static calculation
 charge density and potential will be updated during run
 spin polarized calculation
 Variant of blocked Davidson
 Davidson routine will perform the subspace rotation
 perform sub-space diagonalisation
    after iterative eigenvector-optimisation
 modified Broyden-mixing scheme, WC =      100.0
 initial mixing is a Kerker type mixing with AMIX =  0.4000 and BMIX =      1.0000
 Hartree-type preconditioning will be used
 using additional bands          127
 real space projection scheme for non local part
 use partial core corrections
 calculate Harris-corrections to forces   (improved forces if not selfconsistent)
 use gradient corrections 
 use of overlap-Matrix (Vanderbilt PP)
 Gauss-broadening in eV      SIGMA  =   0.10


--------------------------------------------------------------------------------------------------------


  energy-cutoff  :      400.00
  volume of cell :     7585.02
      direct lattice vectors                 reciprocal lattice vectors
    37.093879700  0.000000000  0.000000000     0.026958625  0.000000000  0.000000000
     0.000000000  7.354642391  0.000000000     0.000000000  0.135968542  0.000000000
     0.000000000  0.000000000 27.803073883     0.000000000  0.000000000  0.035967246

  length of vectors
    37.093879700  7.354642391 27.803073883     0.026958625  0.135968542  0.035967246



 k-points in units of 2pi/SCALE and weight: Regular k-point mesh                    
   0.00000000  0.00000000  0.00000000       0.125
   0.00000000  0.01699607  0.00000000       0.250
   0.00000000  0.03399214  0.00000000       0.250
   0.00000000  0.05098820  0.00000000       0.250
   0.00000000  0.06798427  0.00000000       0.125

 k-points in reciprocal lattice and weights: Regular k-point mesh                    
   0.00000000  0.00000000  0.00000000       0.125
   0.00000000  0.12500000  0.00000000       0.250
   0.00000000  0.25000000  0.00000000       0.250
   0.00000000  0.37500000  0.00000000       0.250
   0.00000000  0.50000000  0.00000000       0.125

 position of ions in fractional coordinates (direct lattice) 
   0.49962302  0.83334596  0.43662535
   0.73066134  0.83331610  0.56339515
   0.38423247  0.83334677  0.43625725
   0.61505701  0.83335187  0.43674515
   0.44192569  0.66669330  0.43650211
   0.67283007  0.66668896  0.43653958
   0.32654510  0.66669217  0.43616746
   0.55733142  0.66669999  0.43672913
   0.49962268  0.16670877  0.43662594
   0.73066113  0.16662071  0.56339476
   0.38423226  0.16669335  0.43625750
   0.61505700  0.16670545  0.43674605
   0.44192710  0.00001920  0.43647264
   0.67282633  0.00002146  0.43652694
   0.32655548  0.00001837  0.43616080
   0.55733021  0.00002212  0.43669884
   0.49962321  0.50002170  0.43665560
   0.73067088  0.49996892  0.56340083
   0.38422621  0.50001913  0.43628120
   0.61505966  0.50002701  0.43676575
   0.44192634  0.33335008  0.43650303
   0.67283097  0.33336643  0.43654021
   0.32654507  0.33334499  0.43616702
   0.55733156  0.33334321  0.43672808
   0.26922946  0.83336080  0.43653581
   0.50025688  0.83327782  0.56329831
   0.38481573  0.83329936  0.56329157
   0.61565322  0.83329850  0.56362922
   0.44254345  0.66663618  0.56321302
   0.67334447  0.66664340  0.56375307
   0.32704450  0.66663636  0.56355285
   0.55795801  0.66664352  0.56342197
   0.26922837  0.16667521  0.43653734
   0.50025663  0.16664389  0.56329869
   0.38481583  0.16663999  0.56329305
   0.61565300  0.16664625  0.56362935
   0.44254526  0.99996676  0.56324491
   0.67333138  0.99997307  0.56375938
   0.32704839  0.99997225  0.56356953
   0.55795707  0.99997197  0.56344983
   0.26921779  0.50001919  0.43653016
   0.50025488  0.49996089  0.56327282
   0.38481501  0.49996611  0.56327469
   0.61565711  0.49997520  0.56361738
   0.44254402  0.33329096  0.56321247
   0.67334418  0.33330223  0.56375315
   0.32704384  0.33331426  0.56355356
   0.55795832  0.33330084  0.56342166
   0.46115511  0.83334925  0.43653427
   0.69196207  0.83335379  0.43638908
   0.34567751  0.83334323  0.43615399
   0.57656441  0.83335672  0.43672708
   0.40343889  0.66668949  0.43633941
   0.63426941  0.66669397  0.43671688
   0.28767251  0.66667702  0.43633102
   0.51886010  0.66669326  0.43666161
   0.46115498  0.16669179  0.43653550
   0.69196192  0.16669275  0.43638941
   0.34567765  0.16669595  0.43615529
   0.57656336  0.16669202  0.43672698
   0.40344034  0.00002514  0.43630849
   0.63426550  0.00002566  0.43670094
   0.28768462  0.00001934  0.43632595
   0.51885757  0.00002940  0.43663114
   0.46115439  0.50002253  0.43656315
   0.69196860  0.50002897  0.43639455
   0.34567160  0.50001599  0.43616051
   0.57656554  0.50002291  0.43674537
   0.40343908  0.33335188  0.43633911
   0.63426965  0.33336157  0.43671698
   0.28767217  0.33335832  0.43633172
   0.51886099  0.33335797  0.43666161
   0.48102273  0.99996236  0.56328966
   0.71220357  0.99997136  0.56360723
   0.36560545  0.99996569  0.56337048
   0.59644553  0.99997252  0.56358494
   0.42330983  0.83329654  0.56323966
   0.65421100  0.83329550  0.56375660
   0.30791330  0.83330673  0.56372061
   0.53872823  0.83330054  0.56339974
   0.48101722  0.33329401  0.56325893
   0.71221707  0.33330947  0.56359971
   0.36560263  0.33330322  0.56334552
   0.59644256  0.33330279  0.56355749
   0.42330996  0.16663732  0.56324021
   0.65421105  0.16665086  0.56375656
   0.30791349  0.16664027  0.56372051
   0.53872788  0.16664171  0.56339992
   0.48101754  0.66662880  0.56325893
   0.71221823  0.66663276  0.56360001
   0.36560258  0.66663724  0.56334571
   0.59644320  0.66664006  0.56355734
   0.42331137  0.49996598  0.56322040
   0.65421644  0.49997290  0.56374986
   0.30790592  0.49997608  0.56370932
   0.53872762  0.49997229  0.56337605
   0.26903638  0.83329748  0.56405128
   0.26902376  0.49997085  0.56403886
   0.26903748  0.16663653  0.56405114
   0.73084046  0.83334764  0.43613705
   0.73085283  0.50001879  0.43615544
   0.73084021  0.16669278  0.43613737
   0.25057093  0.66665379  0.56420596
   0.25057262  0.33327946  0.56420622
   0.25057986  0.99997191  0.56421891
   0.74930133  0.00002525  0.43604197
   0.74931007  0.33333983  0.43604803
   0.74931067  0.66669884  0.43604832
   0.23975978  0.83348167  0.43706729
   0.23974918  0.50001992  0.43706666
   0.23975913  0.16655446  0.43706806
   0.76013020  0.83342324  0.56287121
   0.76014095  0.49996936  0.56287594
   0.76013050  0.16651573  0.56287109
   0.22109754  0.66674002  0.56445777
   0.22110088  0.33320722  0.56445794
   0.22110271  0.99997508  0.56444496
   0.77877843  0.00001864  0.43592714
   0.77878103  0.33326140  0.43591122
   0.77878319  0.66677104  0.43591173
   0.19414137  0.33287245  0.50015937

 position of ions in cartesian coordinates  (Angst):
  18.53295627  6.12896150 12.13952695
  27.10306372  6.12874193 15.66411695
  14.25267299  6.12896745 12.12929264
  22.81485090  6.12900502 12.14285772
  16.39273824  4.90329083 12.13610028
  24.95787772  4.90325886 12.13714218
  12.11282480  4.90328247 12.12679615
  20.67358480  4.90333998 12.14241221
  18.53294374  1.22608341 12.13954321
  27.10305605  1.22543573 15.66410609
  14.25266518  1.22596998 12.12929962
  22.81485027  1.22605893 12.14288270
  16.39279076  0.00014124 12.13528108
  24.95773913  0.00015780 12.13679084
  12.11320961  0.00013512 12.12661086
  20.67353960  0.00016271 12.14157012
  18.53296333  3.67748082 12.14036784
  27.10341784  3.67709261 15.66427477
  14.25244085  3.67746192 12.12995834
  22.81494906  3.67751984 12.14343039
  16.39276261  2.45167059 12.13612600
  24.95791120  2.45179089 12.13715984
  12.11282358  2.45163319 12.12678380
  20.67358991  2.45162009 12.14238309
   9.98676519  6.12907063 12.13703733
  18.55646859  6.12846034 15.66142467
  14.27430831  6.12861879 15.66123719
  22.83696661  6.12861247 15.67062486
  16.41565363  4.90287074 15.65905328
  24.97695872  4.90292378 15.67406837
  12.13134943  4.90287201 15.66850157
  20.69682734  4.90292467 15.66486270
   9.98672459  1.22583657 12.13707998
  18.55645921  1.22560623 15.66143501
  14.27431221  1.22557755 15.66127817
  22.83695815  1.22562357 15.67062847
  16.41572068  7.35439795 15.65993973
  24.97647327  7.35444435 15.67424382
  12.13149372  7.35443829 15.66896540
  20.69679232  7.35443622 15.66563714
   9.98633220  3.67746234 12.13688039
  18.55639433  3.67703353 15.66071594
  14.27428151  3.67707191 15.66076792
  22.83711084  3.67713881 15.67029564
  16.41567446  2.45123582 15.65903800
  24.97694783  2.45131874 15.67407043
  12.13132481  2.45140721 15.66852113
  20.69683879  2.45130852 15.66485396
  17.10603201  6.12898569 12.13699460
  25.66755774  6.12901910 12.13295779
  12.82251984  6.12894148 12.12642159
  21.38701074  6.12904068 12.14235525
  14.96511359  4.90326276 12.13157683
  23.52751307  4.90329573 12.14207174
  10.67088937  4.90317111 12.13134361
  19.24653403  4.90329051 12.14053501
  17.10602741  1.22595853 12.13702867
  25.66755216  1.22596554 12.13296696
  12.82252523  1.22598907 12.12645786
  21.38697191  1.22596016 12.14235256
  14.96516743  0.00018493 12.13071717
  23.52736820  0.00018875 12.14162851
  10.67133884  0.00014227 12.13120251
  19.24644025  0.00021622 12.13968793
  17.10600530  3.67748689 12.13779760
  25.66780003  3.67753426 12.13310980
  12.82230082  3.67743879 12.12660283
  21.38705275  3.67748970 12.14286376
  14.96512087  2.45168386 12.13156846
  23.52752194  2.45175513 12.14207436
  10.67087672  2.45173127 12.13136297
  19.24656710  2.45172863 12.14053502
  17.84299910  7.35436556 15.66118406
  26.41839348  7.35443176 15.67001357
  13.56172456  7.35439003 15.66343121
  22.12447879  7.35444030 15.66939379
  15.70220406  6.12859807 15.65979397
  24.26722425  6.12859038 15.67416628
  11.42169899  6.12867298 15.67316586
  19.98352017  6.12862744 15.66424454
  17.84279486  2.45125823 15.66032952
  26.41889419  2.45137198 15.66980445
  13.56161994  2.45132600 15.66273723
  22.12436842  2.45132279 15.66863048
  15.70220877  1.22555793 15.65980919
  24.26722585  1.22565748 15.67416540
  11.42170612  1.22557956 15.67316290
  19.98350721  1.22559018 15.66424950
  17.84280678  4.90281642 15.66032974
  26.41893741  4.90284554 15.66981275
  13.56161804  4.90287853 15.66274250
  22.12439221  4.90289924 15.66862627
  15.70226111  3.67707100 15.65925837
  24.26742608  3.67712192 15.67397905
  11.42142519  3.67714529 15.67285185
  19.98349756  3.67711739 15.66358598
   9.97960295  6.12860494 15.68235932
   9.97913512  3.67710679 15.68201413
   9.97964394  1.22555208 15.68235547
  27.10970817  6.12897391 12.12595057
  27.11016709  3.67745942 12.12646203
  27.10969880  1.22596580 12.12595950
   9.29464779  4.90300019 15.68665993
   9.29471055  2.45115122 15.68666710
   9.29497901  7.35443577 15.68702012
  27.79449340  0.00018568 12.12330701
  27.79481761  2.45159525 12.12347560
  27.79483993  4.90333154 12.12348366
   8.89362054  6.12995962 12.15181427
   8.89322707  3.67746767 12.15179668
   8.89359646  1.22494852 12.15183555
  28.19617832  6.12952986 15.64954983
  28.19657684  3.67709587 15.64968127
  28.19618929  1.22466361 15.64954648
   8.20136545  4.90363441 15.69366119
   8.20148961  2.45061997 15.69366574
   8.20155735  7.35445912 15.69330491
  28.88791346  0.00013710 12.12011440
  28.88800968  2.45101841 12.11967182
  28.88809011  4.90386259 12.11968607
   7.20145680  2.44815782 13.90596783



--------------------------------------------------------------------------------------------------------


 k-point  1 :   0.0000 0.0000 0.0000  plane waves:  137621
 k-point  2 :   0.0000 0.1250 0.0000  plane waves:  137658
 k-point  3 :   0.0000 0.2500 0.0000  plane waves:  137784
 k-point  4 :   0.0000 0.3750 0.0000  plane waves:  137874
 k-point  5 :   0.0000 0.5000 0.0000  plane waves:  137872

 maximum and minimum number of plane-waves per node :     34603    34274

 maximum number of plane-waves:    137874
 maximum index in each direction: 
   IXMAX=   60   IYMAX=   11   IZMAX=   45
   IXMIN=  -60   IYMIN=  -12   IZMIN=  -45


 real space projection operators:
  total allocation   :       8241.37 KBytes
  max/ min on nodes  :       2063.80       2055.48


 parallel 3D FFT for wavefunctions:
    minimum data exchange during FFTs selected (reduces bandwidth)
 parallel 3D FFT for charge:
    minimum data exchange during FFTs selected (reduces bandwidth)


 total amount of memory used by VASP MPI-rank0   280966. kBytes
=======================================================================

   base      :      30000. kBytes
   nonlr-proj:       4989. kBytes
   fftplans  :      14214. kBytes
   grid      :      37253. kBytes
   one-center:        190. kBytes
   wavefun   :     194320. kBytes

     INWAV:  cpu time    0.0001: real time    0.0001
 Broyden mixing: mesh for mixing (old mesh)
   NGX =121   NGY = 23   NGZ = 91
  (NGX  =384   NGY  = 72   NGZ  =280)
  gives a total of 253253 points

 initial charge density was supplied:
 charge density of overlapping atoms calculated
 number of electron     445.0000000 magnetization     121.0000000
 keeping initial charge density in first step


--------------------------------------------------------------------------------------------------------


 Maximum index for non-local projection operator          301
 Maximum index for augmentation-charges          211 (set IRDMAX)


--------------------------------------------------------------------------------------------------------


 First call to EWALD:  gamma=   0.090
 Maximum number of real-space cells 2x 7x 2
 Maximum number of reciprocal cells 5x 1x 4

    FEWALD:  cpu time    0.0047: real time    0.0048


--------------------------------------- Iteration      1(   1)  ---------------------------------------


    POTLOK:  cpu time    0.2906: real time    0.2963
    SETDIJ:  cpu time    0.0177: real time    0.0178
     EDDAV:  cpu time   50.3536: real time   50.6446
       DOS:  cpu time    0.0027: real time    0.0027
    --------------------------------------------
      LOOP:  cpu time   50.6646: real time   50.9614

 eigenvalue-minimisations  :  8580
 total energy-change (2. order) : 0.3568108E+04  (-0.1382378E+05)
 number of electron     445.0000000 magnetization     121.0000000
 augmentation part      445.0000000 magnetization     121.0000000

 Free energy of the ion-electron system (eV)
  ---------------------------------------------------
  alpha Z        PSCENC =       131.99278517
  Ewald energy   TEWEN  =    184316.34782143
  -Hartree energ DENC   =   -195636.91139010
  -exchange      EXHF   =         0.00000000
  -V(xc)+E(xc)   XCENC  =      1469.99940716
  PAW double counting   =     11735.59191605   -11790.67375283
  entropy T*S    EENTRO =        -0.29165182
  eigenvalues    EBANDS =     -2702.73133805
  atomic energy  EATOM  =     16044.78385898
  Solvation  Ediel_sol  =         0.00000000
  ---------------------------------------------------
  free energy    TOTEN  =      3568.10765599 eV

  energy without entropy =     3568.39930781  energy(sigma->0) =     3568.25348190


--------------------------------------------------------------------------------------------------------




--------------------------------------- Iteration      1(   2)  ---------------------------------------


     EDDAV:  cpu time   59.9016: real time   60.2509
       DOS:  cpu time    0.0018: real time    0.0019
    --------------------------------------------
      LOOP:  cpu time   59.9035: real time   60.2528

 eigenvalue-minimisations  : 10840
 total energy-change (2. order) :-0.3800180E+04  (-0.3475825E+04)
 number of electron     445.0000000 magnetization     121.0000000
 augmentation part      445.0000000 magnetization     121.0000000

 Free energy of the ion-electron system (eV)
  ---------------------------------------------------
  alpha Z        PSCENC =       131.99278517
  Ewald energy   TEWEN  =    184316.34782143
  -Hartree energ DENC   =   -195636.91139010
  -exchange      EXHF   =         0.00000000
  -V(xc)+E(xc)   XCENC  =      1469.99940716
  PAW double counting   =     11735.59191605   -11790.67375283
  entropy T*S    EENTRO =        -0.02348428
  eigenvalues    EBANDS =     -6503.17923898
  atomic energy  EATOM  =     16044.78385898
  Solvation  Ediel_sol  =         0.00000000
  ---------------------------------------------------
  free energy    TOTEN  =      -232.07207740 eV

  energy without entropy =     -232.04859311  energy(sigma->0) =     -232.06033526


--------------------------------------------------------------------------------------------------------




--------------------------------------- Iteration      1(   3)  ---------------------------------------


     EDDAV:  cpu time   52.7324: real time   53.0268
       DOS:  cpu time    0.0016: real time    0.0016
    --------------------------------------------
      LOOP:  cpu time   52.7340: real time   53.0284

 eigenvalue-minimisations  :  9430
 total energy-change (2. order) :-0.7882923E+03  (-0.7846856E+03)
 number of electron     445.0000000 magnetization     121.0000000
 augmentation part      445.0000000 magnetization     121.0000000

 Free energy of the ion-electron system (eV)
  ---------------------------------------------------
  alpha Z        PSCENC =       131.99278517
  Ewald energy   TEWEN  =    184316.34782143
  -Hartree energ DENC   =   -195636.91139010
  -exchange      EXHF   =         0.00000000
  -V(xc)+E(xc)   XCENC  =      1469.99940716
  PAW double counting   =     11735.59191605   -11790.67375283
  entropy T*S    EENTRO =        -0.02528917
  eigenvalues    EBANDS =     -7291.46975516
  atomic energy  EATOM  =     16044.78385898
  Solvation  Ediel_sol  =         0.00000000
  ---------------------------------------------------
  free energy    TOTEN  =     -1020.36439847 eV

  energy without entropy =    -1020.33910930  energy(sigma->0) =    -1020.35175388


--------------------------------------------------------------------------------------------------------




--------------------------------------- Iteration      1(   4)  ---------------------------------------


     EDDAV:  cpu time   51.8534: real time   52.1421
       DOS:  cpu time    0.0015: real time    0.0015
    --------------------------------------------
      LOOP:  cpu time   51.8548: real time   52.1436

 eigenvalue-minimisations  :  9330
 total energy-change (2. order) :-0.2976619E+02  (-0.2963547E+02)
 number of electron     445.0000000 magnetization     121.0000000
 augmentation part      445.0000000 magnetization     121.0000000

 Free energy of the ion-electron system (eV)
  ---------------------------------------------------
  alpha Z        PSCENC =       131.99278517
  Ewald energy   TEWEN  =    184316.34782143
  -Hartree energ DENC   =   -195636.91139010
  -exchange      EXHF   =         0.00000000
  -V(xc)+E(xc)   XCENC  =      1469.99940716
  PAW double counting   =     11735.59191605   -11790.67375283
  entropy T*S    EENTRO =        -0.02373333
  eigenvalues    EBANDS =     -7321.23750483
  atomic energy  EATOM  =     16044.78385898
  Solvation  Ediel_sol  =         0.00000000
  ---------------------------------------------------
  free energy    TOTEN  =     -1050.13059229 eV

  energy without entropy =    -1050.10685896  energy(sigma->0) =    -1050.11872563


--------------------------------------------------------------------------------------------------------




--------------------------------------- Iteration      1(   5)  ---------------------------------------


     EDDAV:  cpu time   55.8706: real time   56.1795
       DOS:  cpu time    0.0014: real time    0.0014
    CHARGE:  cpu time    1.1718: real time    1.1804
    MIXING:  cpu time    0.0043: real time    0.0044
    --------------------------------------------
      LOOP:  cpu time   57.0482: real time   57.3657

 eigenvalue-minimisations  : 10160
 total energy-change (2. order) :-0.7189662E+00  (-0.7172385E+00)
 number of electron     444.9999281 magnetization     115.8290088
 augmentation part       11.7744552 magnetization     111.0905303

 Broyden mixing:
  rms(total) = 0.69974E+01    rms(broyden)= 0.69950E+01
  rms(prec ) = 0.70750E+01
  weight for this iteration     100.00

 Free energy of the ion-electron system (eV)
  ---------------------------------------------------
  alpha Z        PSCENC =       131.99278517
  Ewald energy   TEWEN  =    184316.34782143
  -Hartree energ DENC   =   -195636.91139010
  -exchange      EXHF   =         0.00000000
  -V(xc)+E(xc)   XCENC  =      1469.99940716
  PAW double counting   =     11735.59191605   -11790.67375283
  entropy T*S    EENTRO =        -0.02367657
  eigenvalues    EBANDS =     -7321.95652775
  atomic energy  EATOM  =     16044.78385898
  Solvation  Ediel_sol  =         0.00000000
  ---------------------------------------------------
  free energy    TOTEN  =     -1050.84955845 eV

  energy without entropy =    -1050.82588189  energy(sigma->0) =    -1050.83772017


--------------------------------------------------------------------------------------------------------




--------------------------------------- Iteration      1(   6)  ---------------------------------------


    POTLOK:  cpu time    0.2550: real time    0.2564
    SETDIJ:  cpu time    0.0182: real time    0.0183
     EDDAV:  cpu time   47.9449: real time   48.2232
       DOS:  cpu time    0.0033: real time    0.0033
    CHARGE:  cpu time    1.1080: real time    1.1145
    MIXING:  cpu time    0.0055: real time    0.0055
    --------------------------------------------
      LOOP:  cpu time   49.3348: real time   49.6212

 eigenvalue-minimisations  :  8020
 total energy-change (2. order) : 0.3651748E+03  (-0.6053788E+02)
 number of electron     444.9999317 magnetization     109.6953505
 augmentation part       11.6373514 magnetization     103.2959548

 Broyden mixing:
  rms(total) = 0.41804E+01    rms(broyden)= 0.41799E+01
  rms(prec ) = 0.42381E+01
  weight for this iteration     100.00

 eigenvalues of (default mixing * dielectric matrix)
  average eigenvalue GAMMA=   1.0097
  1.0097

 Free energy of the ion-electron system (eV)
  ---------------------------------------------------
  alpha Z        PSCENC =       131.99278517
  Ewald energy   TEWEN  =    184316.34782143
  -Hartree energ DENC   =   -196429.97824429
  -exchange      EXHF   =         0.00000000
  -V(xc)+E(xc)   XCENC  =      1727.23703862
  PAW double counting   =     21863.01370816   -21927.05063272
  entropy T*S    EENTRO =        -0.03569078
  eigenvalues    EBANDS =     -6411.98535680
  atomic energy  EATOM  =     16044.78385898
  Solvation  Ediel_sol  =         0.00000000
  ---------------------------------------------------
  free energy    TOTEN  =      -685.67471222 eV

  energy without entropy =     -685.63902144  energy(sigma->0) =     -685.65686683


--------------------------------------------------------------------------------------------------------




--------------------------------------- Iteration      1(   7)  ---------------------------------------


    POTLOK:  cpu time    0.2517: real time    0.2534
    SETDIJ:  cpu time    0.0227: real time    0.0228
     EDDAV:  cpu time   50.3367: real time   50.6246
       DOS:  cpu time    0.0034: real time    0.0034
    CHARGE:  cpu time    1.0875: real time    1.0943
    MIXING:  cpu time    0.0116: real time    0.0117
    --------------------------------------------
      LOOP:  cpu time   51.7137: real time   52.0103

 eigenvalue-minimisations  :  8280
 total energy-change (2. order) :-0.3741470E+02  (-0.6662513E+01)
 number of electron     444.9999333 magnetization     101.0744956
 augmentation part       11.2636583 magnetization      94.1470182

 Broyden mixing:
  rms(total) = 0.28872E+01    rms(broyden)= 0.28869E+01
  rms(prec ) = 0.29042E+01
  weight for this iteration     100.00

 eigenvalues of (default mixing * dielectric matrix)
  average eigenvalue GAMMA=   1.2917
  0.8120  1.7713

 Free energy of the ion-electron system (eV)
  ---------------------------------------------------
  alpha Z        PSCENC =       131.99278517
  Ewald energy   TEWEN  =    184316.34782143
  -Hartree energ DENC   =   -197185.51353409
  -exchange      EXHF   =         0.00000000
  -V(xc)+E(xc)   XCENC  =      1702.75831431
  PAW double counting   =     32765.89500553   -32835.05120231
  entropy T*S    EENTRO =        -0.02246905
  eigenvalues    EBANDS =     -5664.27999445
  atomic energy  EATOM  =     16044.78385898
  Solvation  Ediel_sol  =         0.00000000
  ---------------------------------------------------
  free energy    TOTEN  =      -723.08941448 eV

  energy without entropy =     -723.06694543  energy(sigma->0) =     -723.07817995


--------------------------------------------------------------------------------------------------------




--------------------------------------- Iteration      1(   8)  ---------------------------------------


    POTLOK:  cpu time    0.2584: real time    0.2599
    SETDIJ:  cpu time    0.0199: real time    0.0200
     EDDAV:  cpu time   50.6401: real time   50.9236
       DOS:  cpu time    0.0033: real time    0.0033
    CHARGE:  cpu time    1.0969: real time    1.1033
    MIXING:  cpu time    0.0082: real time    0.0083
    --------------------------------------------
      LOOP:  cpu time   52.0267: real time   52.3183

 eigenvalue-minimisations  :  8240
 total energy-change (2. order) :-0.3622490E+02  (-0.3709079E+01)
 number of electron     444.9999344 magnetization      94.5069044
 augmentation part       10.9181529 magnetization      87.9784355

 Broyden mixing:
  rms(total) = 0.20169E+01    rms(broyden)= 0.20168E+01
  rms(prec ) = 0.20202E+01
  weight for this iteration     100.00

 eigenvalues of (default mixing * dielectric matrix)
  average eigenvalue GAMMA=   1.3673
  2.3865  1.0207  0.6946

 Free energy of the ion-electron system (eV)
  ---------------------------------------------------
  alpha Z        PSCENC =       131.99278517
  Ewald energy   TEWEN  =    184316.34782143
  -Hartree energ DENC   =   -197751.22090865
  -exchange      EXHF   =         0.00000000
  -V(xc)+E(xc)   XCENC  =      1694.43779572
  PAW double counting   =     45220.78956778   -45289.43025699
  entropy T*S    EENTRO =        -0.02054455
  eigenvalues    EBANDS =     -5126.99443293
  atomic energy  EATOM  =     16044.78385898
  Solvation  Ediel_sol  =         0.00000000
  ---------------------------------------------------
  free energy    TOTEN  =      -759.31431404 eV

  energy without entropy =     -759.29376948  energy(sigma->0) =     -759.30404176


--------------------------------------------------------------------------------------------------------




--------------------------------------- Iteration      1(   9)  ---------------------------------------


    POTLOK:  cpu time    0.2556: real time    0.2570
    SETDIJ:  cpu time    0.0201: real time    0.0202
     EDDAV:  cpu time   50.3802: real time   50.6658
       DOS:  cpu time    0.0032: real time    0.0032
    CHARGE:  cpu time    1.1740: real time    1.1812
    MIXING:  cpu time    0.0093: real time    0.0093
    --------------------------------------------
      LOOP:  cpu time   51.8423: real time   52.1367

 eigenvalue-minimisations  :  8160
 total energy-change (2. order) :-0.4557863E+02  (-0.1215159E+01)
 number of electron     444.9999345 magnetization      83.7390727
 augmentation part       10.7950113 magnetization      77.7104933

 Broyden mixing:
  rms(total) = 0.16877E+01    rms(broyden)= 0.16877E+01
  rms(prec ) = 0.16910E+01
  weight for this iteration     100.00

 eigenvalues of (default mixing * dielectric matrix)
  average eigenvalue GAMMA=   1.4353
  2.6266  1.5996  0.8525  0.6626

 Free energy of the ion-electron system (eV)
  ---------------------------------------------------
  alpha Z        PSCENC =       131.99278517
  Ewald energy   TEWEN  =    184316.34782143
  -Hartree energ DENC   =   -197870.29869599
  -exchange      EXHF   =         0.00000000
  -V(xc)+E(xc)   XCENC  =      1672.26015502
  PAW double counting   =     48984.68507999   -49055.55589095
  entropy T*S    EENTRO =        -0.00665611
  eigenvalues    EBANDS =     -5029.10139728
  atomic energy  EATOM  =     16044.78385898
  Solvation  Ediel_sol  =         0.00000000
  ---------------------------------------------------
  free energy    TOTEN  =      -804.89293972 eV

  energy without entropy =     -804.88628361  energy(sigma->0) =     -804.88961166


--------------------------------------------------------------------------------------------------------




--------------------------------------- Iteration      1(  10)  ---------------------------------------


    POTLOK:  cpu time    0.2812: real time    0.2827
    SETDIJ:  cpu time    0.0187: real time    0.0188
     EDDAV:  cpu time   48.6255: real time   48.9072
       DOS:  cpu time    0.0035: real time    0.0035
    CHARGE:  cpu time    1.1247: real time    1.1315
    MIXING:  cpu time    0.0085: real time    0.0085
    --------------------------------------------
      LOOP:  cpu time   50.0621: real time   50.3523

 eigenvalue-minimisations  :  7830
 total energy-change (2. order) :-0.7649229E+02  (-0.3663463E+01)
 number of electron     444.9999341 magnetization      72.0834930
 augmentation part       10.7500481 magnetization      66.5879601

 Broyden mixing:
  rms(total) = 0.13145E+01    rms(broyden)= 0.13144E+01
  rms(prec ) = 0.13158E+01
  weight for this iteration     100.00

 eigenvalues of (default mixing * dielectric matrix)
  average eigenvalue GAMMA=   1.5748
  3.1012  2.3653  0.9592  0.8254  0.6227

 Free energy of the ion-electron system (eV)
  ---------------------------------------------------
  alpha Z        PSCENC =       131.99278517
  Ewald energy   TEWEN  =    184316.34782143
  -Hartree energ DENC   =   -197905.05061473
  -exchange      EXHF   =         0.00000000
  -V(xc)+E(xc)   XCENC  =      1625.45032004
  PAW double counting   =     50498.26883480   -50566.66483278
  entropy T*S    EENTRO =        -0.02427721
  eigenvalues    EBANDS =     -5026.48912367
  atomic energy  EATOM  =     16044.78385898
  Solvation  Ediel_sol  =         0.00000000
  ---------------------------------------------------
  free energy    TOTEN  =      -881.38522796 eV

  energy without entropy =     -881.36095075  energy(sigma->0) =     -881.37308936


--------------------------------------------------------------------------------------------------------




--------------------------------------- Iteration      1(  11)  ---------------------------------------


    POTLOK:  cpu time    0.2554: real time    0.2568
    SETDIJ:  cpu time    0.0245: real time    0.0246
     EDDAV:  cpu time   48.2535: real time   48.5265
       DOS:  cpu time    0.0050: real time    0.0050
    CHARGE:  cpu time    1.0556: real time    1.0610
    MIXING:  cpu time    0.0113: real time    0.0114
    --------------------------------------------
      LOOP:  cpu time   49.6052: real time   49.8854

 eigenvalue-minimisations  :  7800
 total energy-change (2. order) :-0.6003595E+02  (-0.3546104E+01)
 number of electron     444.9999339 magnetization      61.7635606
 augmentation part       10.7306093 magnetization      57.9518011

 Broyden mixing:
  rms(total) = 0.10593E+01    rms(broyden)= 0.10591E+01
  rms(prec ) = 0.10658E+01
  weight for this iteration     100.00

 eigenvalues of (default mixing * dielectric matrix)
  average eigenvalue GAMMA=   1.6311
  3.7731  2.5008  1.2409  0.9439  0.7154  0.6127

 Free energy of the ion-electron system (eV)
  ---------------------------------------------------
  alpha Z        PSCENC =       131.99278517
  Ewald energy   TEWEN  =    184316.34782143
  -Hartree energ DENC   =   -197930.00528544
  -exchange      EXHF   =         0.00000000
  -V(xc)+E(xc)   XCENC  =      1587.96587210
  PAW double counting   =     49945.38929577   -50012.57431794
  entropy T*S    EENTRO =        -0.04742177
  eigenvalues    EBANDS =     -5025.27378668
  atomic energy  EATOM  =     16044.78385898
  Solvation  Ediel_sol  =         0.00000000
  ---------------------------------------------------
  free energy    TOTEN  =      -941.42117837 eV

  energy without entropy =     -941.37375660  energy(sigma->0) =     -941.39746748


--------------------------------------------------------------------------------------------------------




--------------------------------------- Iteration      1(  12)  ---------------------------------------


    POTLOK:  cpu time    0.2702: real time    0.2717
    SETDIJ:  cpu time    0.0253: real time    0.0254
     EDDAV:  cpu time   48.4614: real time   48.7345
       DOS:  cpu time    0.0060: real time    0.0061
    CHARGE:  cpu time    1.0443: real time    1.0552
    MIXING:  cpu time    0.0116: real time    0.0116
    --------------------------------------------
      LOOP:  cpu time   49.8187: real time   50.1045

 eigenvalue-minimisations  :  7790
 total energy-change (2. order) :-0.3880958E+02  (-0.2284384E+01)
 number of electron     444.9999335 magnetization      47.4599869
 augmentation part       10.6173595 magnetization      43.3249891

 Broyden mixing:
  rms(total) = 0.78646E+00    rms(broyden)= 0.78631E+00
  rms(prec ) = 0.78847E+00
  weight for this iteration     100.00

 eigenvalues of (default mixing * dielectric matrix)
  average eigenvalue GAMMA=   1.9855
  6.3595  2.5943  1.8388  1.0280  0.8103  0.6704  0.5971

 Free energy of the ion-electron system (eV)
  ---------------------------------------------------
  alpha Z        PSCENC =       131.99278517
  Ewald energy   TEWEN  =    184316.34782143
  -Hartree energ DENC   =   -198027.71837865
  -exchange      EXHF   =         0.00000000
  -V(xc)+E(xc)   XCENC  =      1562.78232302
  PAW double counting   =     48479.80267640   -48547.33508390
  entropy T*S    EENTRO =        -0.03706832
  eigenvalues    EBANDS =     -4940.84969111
  atomic energy  EATOM  =     16044.78385898
  Solvation  Ediel_sol  =         0.00000000
  ---------------------------------------------------
  free energy    TOTEN  =      -980.23075697 eV

  energy without entropy =     -980.19368866  energy(sigma->0) =     -980.21222281


--------------------------------------------------------------------------------------------------------




--------------------------------------- Iteration      1(  13)  ---------------------------------------


    POTLOK:  cpu time    0.2517: real time    0.2551
    SETDIJ:  cpu time    0.0261: real time    0.0265
     EDDAV:  cpu time   49.3090: real time   49.5986
       DOS:  cpu time    0.0051: real time    0.0052
    CHARGE:  cpu time    1.1604: real time    1.1671
    MIXING:  cpu time    0.0122: real time    0.0123
    --------------------------------------------
      LOOP:  cpu time   50.7646: real time   51.0649

 eigenvalue-minimisations  :  7940
 total energy-change (2. order) :-0.2803727E+02  (-0.3159335E+01)
 number of electron     444.9999331 magnetization      42.4980419
 augmentation part       10.5460914 magnetization      38.4796882

 Broyden mixing:
  rms(total) = 0.56849E+00    rms(broyden)= 0.56823E+00
  rms(prec ) = 0.57647E+00
  weight for this iteration     100.00

 eigenvalues of (default mixing * dielectric matrix)
  average eigenvalue GAMMA=   2.1133
  8.2098  2.3730  2.1924  0.9384  0.9384  0.9160  0.6150  0.7235

 Free energy of the ion-electron system (eV)
  ---------------------------------------------------
  alpha Z        PSCENC =       131.99278517
  Ewald energy   TEWEN  =    184316.34782143
  -Hartree energ DENC   =   -198028.29327778
  -exchange      EXHF   =         0.00000000
  -V(xc)+E(xc)   XCENC  =      1544.76275115
  PAW double counting   =     46361.45140910   -46429.14170823
  entropy T*S    EENTRO =        -0.02580861
  eigenvalues    EBANDS =     -4950.14586286
  atomic energy  EATOM  =     16044.78385898
  Solvation  Ediel_sol  =         0.00000000
  ---------------------------------------------------
  free energy    TOTEN  =     -1008.26803163 eV

  energy without entropy =    -1008.24222302  energy(sigma->0) =    -1008.25512732


--------------------------------------------------------------------------------------------------------




--------------------------------------- Iteration      1(  14)  ---------------------------------------


    POTLOK:  cpu time    0.2535: real time    0.2549
    SETDIJ:  cpu time    0.0244: real time    0.0246
     EDDAV:  cpu time   50.0017: real time   50.3003
       DOS:  cpu time    0.0052: real time    0.0053
    CHARGE:  cpu time    1.1584: real time    1.1683
    MIXING:  cpu time    0.0120: real time    0.0120
    --------------------------------------------
      LOOP:  cpu time   51.4552: real time   51.7655

 eigenvalue-minimisations  :  8070
 total energy-change (2. order) :-0.4719635E+01  (-0.2242933E+00)
 number of electron     444.9999332 magnetization      37.9448728
 augmentation part       10.5531737 magnetization      34.7182942

 Broyden mixing:
  rms(total) = 0.49202E+00    rms(broyden)= 0.49189E+00
  rms(prec ) = 0.49442E+00
  weight for this iteration     100.00

 eigenvalues of (default mixing * dielectric matrix)
  average eigenvalue GAMMA=   2.1599
  9.7407  2.4185  2.4185  1.0869  0.9765  0.7302  0.7302  0.7246  0.6134

 Free energy of the ion-electron system (eV)
  ---------------------------------------------------
  alpha Z        PSCENC =       131.99278517
  Ewald energy   TEWEN  =    184316.34782143
  -Hartree energ DENC   =   -197980.16895914
  -exchange      EXHF   =         0.00000000
  -V(xc)+E(xc)   XCENC  =      1539.96547065
  PAW double counting   =     46366.64500351   -46434.45644998
  entropy T*S    EENTRO =        -0.05761296
  eigenvalues    EBANDS =     -4998.03958424
  atomic energy  EATOM  =     16044.78385898
  Solvation  Ediel_sol  =         0.00000000
  ---------------------------------------------------
  free energy    TOTEN  =     -1012.98766656 eV

  energy without entropy =    -1012.93005360  energy(sigma->0) =    -1012.95886008


--------------------------------------------------------------------------------------------------------




--------------------------------------- Iteration      1(  15)  ---------------------------------------


    POTLOK:  cpu time    0.2538: real time    0.2556
    SETDIJ:  cpu time    0.0236: real time    0.0237
     EDDAV:  cpu time   48.9116: real time   49.2119
       DOS:  cpu time    0.0034: real time    0.0054
    CHARGE:  cpu time    1.1270: real time    1.1339
    MIXING:  cpu time    0.0108: real time    0.0109
    --------------------------------------------
      LOOP:  cpu time   50.3301: real time   50.6413

 eigenvalue-minimisations  :  7900
 total energy-change (2. order) :-0.2835615E+01  (-0.5577156E-01)
 number of electron     444.9999332 magnetization      32.5965673
 augmentation part       10.5630416 magnetization      29.6549543

 Broyden mixing:
  rms(total) = 0.43925E+00    rms(broyden)= 0.43924E+00
  rms(prec ) = 0.44195E+00
  weight for this iteration     100.00

 eigenvalues of (default mixing * dielectric matrix)
  average eigenvalue GAMMA=   2.1595
 10.3951  2.5386  2.5386  1.1885  1.0277  0.9268  0.9268  0.7762  0.6142  0.6623

 Free energy of the ion-electron system (eV)
  ---------------------------------------------------
  alpha Z        PSCENC =       131.99278517
  Ewald energy   TEWEN  =    184316.34782143
  -Hartree energ DENC   =   -197942.69515480
  -exchange      EXHF   =         0.00000000
  -V(xc)+E(xc)   XCENC  =      1536.53911179
  PAW double counting   =     46194.12724670   -46262.05132591
  entropy T*S    EENTRO =        -0.05542018
  eigenvalues    EBANDS =     -5034.81220472
  atomic energy  EATOM  =     16044.78385898
  Solvation  Ediel_sol  =         0.00000000
  ---------------------------------------------------
  free energy    TOTEN  =     -1015.82328152 eV

  energy without entropy =    -1015.76786134  energy(sigma->0) =    -1015.79557143


--------------------------------------------------------------------------------------------------------




--------------------------------------- Iteration      1(  16)  ---------------------------------------


    POTLOK:  cpu time    0.2744: real time    0.2761
    SETDIJ:  cpu time    0.0234: real time    0.0235
     EDDAV:  cpu time   49.4934: real time   49.7816
       DOS:  cpu time    0.0036: real time    0.0037
    CHARGE:  cpu time    1.1883: real time    1.1958
    MIXING:  cpu time    0.0132: real time    0.0133
    --------------------------------------------
      LOOP:  cpu time   50.9963: real time   51.2939

 eigenvalue-minimisations  :  8130
 total energy-change (2. order) :-0.3879456E+01  (-0.5561549E-01)
 number of electron     444.9999331 magnetization      25.9277722
 augmentation part       10.5447579 magnetization      22.4988509

 Broyden mixing:
  rms(total) = 0.38875E+00    rms(broyden)= 0.38862E+00
  rms(prec ) = 0.39174E+00
  weight for this iteration     100.00

 eigenvalues of (default mixing * dielectric matrix)
  average eigenvalue GAMMA=   2.1432
 10.7533  2.7427  2.7427  1.7625  1.1268  0.7495  0.7495  0.9494  0.6202  0.6377
  0.7412

 Free energy of the ion-electron system (eV)
  ---------------------------------------------------
  alpha Z        PSCENC =       131.99278517
  Ewald energy   TEWEN  =    184316.34782143
  -Hartree energ DENC   =   -197914.25456482
  -exchange      EXHF   =         0.00000000
  -V(xc)+E(xc)   XCENC  =      1532.39036966
  PAW double counting   =     46282.66272249   -46350.68865982
  entropy T*S    EENTRO =        -0.05959577
  eigenvalues    EBANDS =     -5062.87747460
  atomic energy  EATOM  =     16044.78385898
  Solvation  Ediel_sol  =         0.00000000
  ---------------------------------------------------
  free energy    TOTEN  =     -1019.70273727 eV

  energy without entropy =    -1019.64314151  energy(sigma->0) =    -1019.67293939


--------------------------------------------------------------------------------------------------------




--------------------------------------- Iteration      1(  17)  ---------------------------------------


    POTLOK:  cpu time    0.2484: real time    0.2497
    SETDIJ:  cpu time    0.0253: real time    0.0255
     EDDAV:  cpu time   47.9529: real time   48.2448
       DOS:  cpu time    0.0050: real time    0.0050
    CHARGE:  cpu time    1.1993: real time    1.2068
    MIXING:  cpu time    0.0154: real time    0.0155
    --------------------------------------------
      LOOP:  cpu time   49.4463: real time   49.7474

 eigenvalue-minimisations  :  7670
 total energy-change (2. order) :-0.3026480E+01  (-0.7831089E-01)
 number of electron     444.9999332 magnetization      18.4653139
 augmentation part       10.5637309 magnetization      15.7886186

 Broyden mixing:
  rms(total) = 0.33701E+00    rms(broyden)= 0.33679E+00
  rms(prec ) = 0.34136E+00
  weight for this iteration     100.00

 eigenvalues of (default mixing * dielectric matrix)
  average eigenvalue GAMMA=   2.1993
 11.4586  3.9440  2.3264  2.3264  1.0793  1.0793  0.7318  0.7318  0.7823  0.6814
  0.6253  0.6253

 Free energy of the ion-electron system (eV)
  ---------------------------------------------------
  alpha Z        PSCENC =       131.99278517
  Ewald energy   TEWEN  =    184316.34782143
  -Hartree energ DENC   =   -197841.56796509
  -exchange      EXHF   =         0.00000000
  -V(xc)+E(xc)   XCENC  =      1528.76974599
  PAW double counting   =     46362.14466137   -46430.23708448
  entropy T*S    EENTRO =        -0.05115640
  eigenvalues    EBANDS =     -5134.91188407
  atomic energy  EATOM  =     16044.78385898
  Solvation  Ediel_sol  =         0.00000000
  ---------------------------------------------------
  free energy    TOTEN  =     -1022.72921708 eV

  energy without entropy =    -1022.67806068  energy(sigma->0) =    -1022.70363888


--------------------------------------------------------------------------------------------------------




--------------------------------------- Iteration      1(  18)  ---------------------------------------


    POTLOK:  cpu time    0.2515: real time    0.2530
    SETDIJ:  cpu time    0.0230: real time    0.0232
     EDDAV:  cpu time   47.3657: real time   47.6721
       DOS:  cpu time    0.0038: real time    0.0038
    CHARGE:  cpu time    1.1913: real time    1.1984
    MIXING:  cpu time    0.0163: real time    0.0163
    --------------------------------------------
      LOOP:  cpu time   48.8516: real time   49.1668

 eigenvalue-minimisations  :  7550
 total energy-change (2. order) :-0.2698121E+01  (-0.4026559E-01)
 number of electron     444.9999332 magnetization      12.2277619
 augmentation part       10.5623763 magnetization       9.3077634

 Broyden mixing:
  rms(total) = 0.23586E+00    rms(broyden)= 0.23585E+00
  rms(prec ) = 0.23846E+00
  weight for this iteration     100.00

 eigenvalues of (default mixing * dielectric matrix)
  average eigenvalue GAMMA=   2.3266
 12.3366  5.4603  2.4478  2.4478  1.1784  1.1784  1.0470  0.6844  0.6844  0.8174
  0.7176  0.6231  0.6231

 Free energy of the ion-electron system (eV)
  ---------------------------------------------------
  alpha Z        PSCENC =       131.99278517
  Ewald energy   TEWEN  =    184316.34782143
  -Hartree energ DENC   =   -197785.39937297
  -exchange      EXHF   =         0.00000000
  -V(xc)+E(xc)   XCENC  =      1525.31515464
  PAW double counting   =     46439.44378898   -46507.36442911
  entropy T*S    EENTRO =        -0.05625550
  eigenvalues    EBANDS =     -5190.49069017
  atomic energy  EATOM  =     16044.78385898
  Solvation  Ediel_sol  =         0.00000000
  ---------------------------------------------------
  free energy    TOTEN  =     -1025.42733854 eV

  energy without entropy =    -1025.37108304  energy(sigma->0) =    -1025.39921079


--------------------------------------------------------------------------------------------------------




--------------------------------------- Iteration      1(  19)  ---------------------------------------


    POTLOK:  cpu time    0.2557: real time    0.2571
    SETDIJ:  cpu time    0.0245: real time    0.0246
     EDDAV:  cpu time   47.7951: real time   48.0766
       DOS:  cpu time    0.0035: real time    0.0035
    CHARGE:  cpu time    1.1912: real time    1.1983
    MIXING:  cpu time    0.0148: real time    0.0149
    --------------------------------------------
      LOOP:  cpu time   49.2847: real time   49.5750

 eigenvalue-minimisations  :  7750
 total energy-change (2. order) :-0.2003798E+01  (-0.2273397E-01)
 number of electron     444.9999332 magnetization       7.3879055
 augmentation part       10.5563812 magnetization       4.1210663

 Broyden mixing:
  rms(total) = 0.15048E+00    rms(broyden)= 0.15032E+00
  rms(prec ) = 0.15321E+00
  weight for this iteration     100.00

 eigenvalues of (default mixing * dielectric matrix)
  average eigenvalue GAMMA=   2.5573
 14.4052  7.4857  2.5669  2.5669  1.5999  1.0698  1.0698  0.9259  0.6820  0.6820
  0.7560  0.7511  0.6203  0.6203

 Free energy of the ion-electron system (eV)
  ---------------------------------------------------
  alpha Z        PSCENC =       131.99278517
  Ewald energy   TEWEN  =    184316.34782143
  -Hartree energ DENC   =   -197749.28973593
  -exchange      EXHF   =         0.00000000
  -V(xc)+E(xc)   XCENC  =      1523.48958509
  PAW double counting   =     46661.56084742   -46729.41934536
  entropy T*S    EENTRO =        -0.06201509
  eigenvalues    EBANDS =     -5226.83493792
  atomic energy  EATOM  =     16044.78385898
  Solvation  Ediel_sol  =         0.00000000
  ---------------------------------------------------
  free energy    TOTEN  =     -1027.43113621 eV

  energy without entropy =    -1027.36912112  energy(sigma->0) =    -1027.40012866


--------------------------------------------------------------------------------------------------------




--------------------------------------- Iteration      1(  20)  ---------------------------------------


    POTLOK:  cpu time    0.2514: real time    0.2527
    SETDIJ:  cpu time    0.0235: real time    0.0237
     EDDAV:  cpu time   48.0085: real time   48.3109
       DOS:  cpu time    0.0044: real time    0.0044
    CHARGE:  cpu time    1.1195: real time    1.1263
    MIXING:  cpu time    0.0174: real time    0.0174
    --------------------------------------------
      LOOP:  cpu time   49.4246: real time   49.7354

 eigenvalue-minimisations  :  7760
 total energy-change (2. order) :-0.4116039E+01  (-0.1697440E-01)
 number of electron     444.9999332 magnetization       5.1398469
 augmentation part       10.5592005 magnetization       2.1052996

 Broyden mixing:
  rms(total) = 0.93347E-01    rms(broyden)= 0.93320E-01
  rms(prec ) = 0.95903E-01
  weight for this iteration     100.00

 eigenvalues of (default mixing * dielectric matrix)
  average eigenvalue GAMMA=   2.7281
 17.1078  8.4963  2.6675  2.6675  1.9636  0.9828  0.9828  1.0267  1.0267  0.6697
  0.6697  0.7550  0.6627  0.6214  0.6214

 Free energy of the ion-electron system (eV)
  ---------------------------------------------------
  alpha Z        PSCENC =       131.99278517
  Ewald energy   TEWEN  =    184316.34782143
[...]
   0.332E+03 -.576E-01 0.352E+03   -.332E+03 0.881E-01 -.352E+03   0.458E-01 -.213E-01 -.409E-01   -.195E-03 0.895E-06 -.233E-03
   -.152E+03 0.101E-02 0.373E+03   0.152E+03 -.875E-03 -.373E+03   -.106E-01 -.243E-03 -.234E-01   0.584E-05 -.140E-05 -.267E-03
   0.193E+03 -.288E-01 0.374E+03   -.193E+03 0.320E-01 -.374E+03   0.158E-01 0.448E-03 -.305E-01   0.524E-04 -.341E-07 -.258E-03
   -.279E+03 0.742E-02 0.350E+03   0.279E+03 -.650E-02 -.350E+03   -.194E-01 0.217E-03 -.288E-01   0.514E-04 -.311E-06 -.234E-03
   0.527E+03 -.152E-01 0.305E+03   -.527E+03 0.176E-01 -.305E+03   0.122E+00 -.433E-02 -.293E-01   -.735E-03 -.261E-06 -.130E-03
   -.382E+02 -.976E-02 0.382E+03   0.382E+02 0.118E-01 -.382E+03   -.374E-02 -.528E-03 -.232E-01   0.414E-04 0.634E-07 -.281E-03
   0.364E+02 0.646E-02 -.382E+03   -.364E+02 -.752E-02 0.382E+03   0.134E-01 0.190E-02 0.190E-01   0.177E-03 0.298E-05 0.310E-03
   -.531E+03 0.666E-02 -.304E+03   0.531E+03 -.638E-02 0.304E+03   -.448E+00 -.493E-03 0.419E-01   0.274E-03 0.248E-05 0.129E-03
   0.276E+03 0.319E-01 -.351E+03   -.276E+03 -.348E-01 0.351E+03   0.453E-01 0.150E-01 0.168E-01   -.708E-04 0.222E-05 0.251E-03
   -.195E+03 0.198E-02 -.374E+03   0.195E+03 -.110E-02 0.374E+03   -.284E-01 -.225E-03 0.173E-01   0.161E-04 0.510E-06 0.314E-03
   0.150E+03 -.258E-01 -.373E+03   -.150E+03 0.281E-01 0.373E+03   0.327E-01 0.442E-03 0.189E-01   0.139E-03 -.553E-07 0.287E-03
   -.335E+03 0.268E-01 -.352E+03   0.335E+03 -.279E-01 0.352E+03   -.101E+00 0.172E-02 0.266E-01   0.260E-04 -.150E-07 0.262E-03
   0.429E+03 -.464E-02 -.306E+03   -.429E+03 0.481E-02 0.306E+03   0.102E+00 -.306E-03 0.249E-01   -.449E-03 0.114E-08 0.133E-03
   -.754E+02 -.288E-01 -.383E+03   0.754E+02 0.299E-01 0.383E+03   -.309E-02 -.451E-03 0.184E-01   0.105E-03 -.207E-06 0.324E-03
   0.364E+02 0.297E-02 -.382E+03   -.364E+02 -.161E-02 0.382E+03   0.118E-01 0.653E-03 0.200E-01   0.175E-03 0.116E-06 0.308E-03
   -.531E+03 -.533E-02 -.303E+03   0.531E+03 0.543E-02 0.303E+03   -.452E+00 -.275E-02 0.457E-01   0.274E-03 0.103E-06 0.129E-03
   0.276E+03 0.615E-02 -.351E+03   -.276E+03 -.545E-02 0.351E+03   0.930E-02 0.767E-03 0.154E-01   -.708E-04 -.203E-06 0.253E-03
   -.195E+03 -.276E-01 -.374E+03   0.195E+03 0.310E-01 0.374E+03   -.270E-01 0.518E-03 0.224E-01   0.155E-04 -.111E-06 0.313E-03
   0.150E+03 0.287E-01 -.373E+03   -.150E+03 -.420E-01 0.373E+03   0.290E-01 0.614E-02 0.203E-01   0.140E-03 0.294E-05 0.286E-03
   -.335E+03 -.278E-01 -.352E+03   0.335E+03 0.265E-01 0.352E+03   -.100E+00 -.472E-03 0.267E-01   0.270E-04 0.105E-05 0.262E-03
   0.429E+03 0.250E+00 -.306E+03   -.429E+03 -.298E+00 0.306E+03   -.107E+00 0.717E-01 0.588E-01   -.451E-03 -.208E-05 0.134E-03
   -.754E+02 0.148E-01 -.383E+03   0.754E+02 -.196E-01 0.383E+03   -.242E-02 0.197E-02 0.184E-01   0.104E-03 0.102E-05 0.322E-03
   0.364E+02 -.560E-02 -.382E+03   -.364E+02 0.374E-02 0.382E+03   0.194E-01 -.645E-03 0.206E-01   0.177E-03 -.312E-05 0.309E-03
   -.531E+03 0.122E-01 -.303E+03   0.531E+03 -.142E-01 0.303E+03   -.452E+00 0.338E-02 0.456E-01   0.275E-03 -.260E-05 0.129E-03
   0.276E+03 -.319E-01 -.351E+03   -.276E+03 0.344E-01 0.351E+03   0.469E-01 -.145E-01 0.217E-01   -.707E-04 -.202E-05 0.251E-03
   -.195E+03 0.191E-01 -.374E+03   0.195E+03 -.224E-01 0.374E+03   -.244E-01 -.396E-03 0.225E-01   0.159E-04 -.396E-06 0.314E-03
   0.150E+03 0.799E-02 -.373E+03   -.150E+03 0.224E-02 0.373E+03   0.264E-01 -.681E-02 0.187E-01   0.140E-03 -.304E-05 0.286E-03
   -.335E+03 0.244E-02 -.352E+03   0.335E+03 -.559E-05 0.352E+03   -.102E+00 -.100E-02 0.269E-01   0.272E-04 -.110E-05 0.262E-03
   0.429E+03 -.249E+00 -.306E+03   -.429E+03 0.297E+00 0.306E+03   -.103E+00 -.725E-01 0.580E-01   -.451E-03 0.204E-05 0.134E-03
   -.754E+02 0.192E-02 -.382E+03   0.755E+02 0.184E-02 0.382E+03   -.351E-02 -.306E-02 0.187E-01   0.104E-03 -.892E-06 0.322E-03
   0.553E+03 0.891E-02 -.254E+03   -.554E+03 -.942E-02 0.254E+03   0.344E+00 0.292E-02 0.359E-01   -.727E-03 -.338E-06 -.104E-03
   0.552E+03 -.490E+00 -.255E+03   -.552E+03 0.108E+01 0.255E+03   0.112E+00 -.259E+00 -.727E-01   -.816E-03 -.572E-04 -.130E-03
   0.552E+03 0.483E+00 -.255E+03   -.552E+03 -.107E+01 0.255E+03   0.105E+00 0.256E+00 -.733E-01   -.816E-03 0.574E-04 -.130E-03
   -.556E+03 0.553E-02 0.253E+03   0.557E+03 -.528E-02 -.253E+03   -.388E+00 0.312E-02 -.402E-01   0.431E-03 -.287E-07 -.588E-04
   -.557E+03 -.109E-02 0.253E+03   0.557E+03 0.151E-02 -.253E+03   -.392E+00 0.115E-02 -.442E-01   0.430E-03 -.824E-06 -.583E-04
   -.556E+03 -.669E-02 0.253E+03   0.557E+03 0.750E-02 -.253E+03   -.388E+00 -.176E-02 -.404E-01   0.430E-03 0.822E-06 -.585E-04
   0.655E+03 -.128E+01 -.225E+03   -.655E+03 0.147E+01 0.225E+03   0.513E+00 -.246E+00 -.208E+00   -.982E-03 -.634E-04 -.337E-03
   0.653E+03 -.330E-01 -.227E+03   -.652E+03 0.365E-01 0.228E+03   -.118E+01 -.547E-03 -.125E+01   -.114E-02 0.588E-07 -.402E-03
   0.655E+03 0.131E+01 -.225E+03   -.655E+03 -.151E+01 0.225E+03   0.507E+00 0.246E+00 -.214E+00   -.982E-03 0.635E-04 -.338E-03
   -.657E+03 0.809E-02 0.222E+03   0.658E+03 -.947E-02 -.222E+03   -.102E+01 -.118E-02 -.212E-01   0.596E-03 0.772E-06 0.198E-04
   -.657E+03 -.130E-01 0.222E+03   0.658E+03 0.129E-01 -.222E+03   -.103E+01 -.438E-03 -.207E-01   0.596E-03 0.879E-08 0.196E-04
   -.657E+03 0.831E-02 0.222E+03   0.658E+03 -.833E-02 -.222E+03   -.102E+01 0.732E-03 -.210E-01   0.596E-03 -.783E-06 0.198E-04
   0.199E+03 -.201E-01 0.579E+02   -.205E+03 0.218E-01 -.578E+02   0.562E+01 -.521E-02 -.779E-01   -.300E-03 0.150E-06 0.547E-04
   0.199E+03 -.594E+00 0.585E+02   -.204E+03 0.703E+00 -.586E+02   0.547E+01 -.664E-01 0.394E-02   -.386E-03 -.336E-04 0.882E-04
   0.199E+03 0.615E+00 0.585E+02   -.204E+03 -.725E+00 -.586E+02   0.547E+01 0.716E-01 0.530E-02   -.386E-03 0.335E-04 0.883E-04
   -.200E+03 -.193E-01 -.574E+02   0.206E+03 0.212E-01 0.573E+02   -.567E+01 -.462E-02 0.830E-01   0.991E-04 -.721E-07 -.315E-04
   -.200E+03 0.156E-03 -.574E+02   0.206E+03 -.234E-03 0.573E+02   -.567E+01 -.435E-04 0.832E-01   0.982E-04 -.782E-07 -.316E-04
   -.200E+03 0.184E-01 -.574E+02   0.206E+03 -.202E-01 0.573E+02   -.567E+01 0.458E-02 0.829E-01   0.982E-04 0.162E-06 -.316E-04
   0.198E+03 -.608E+00 -.443E+02   -.203E+03 0.694E+00 0.444E+02   0.553E+01 -.582E-01 -.888E-01   -.178E-03 -.622E-04 -.208E-03
   0.197E+03 0.772E-02 -.457E+02   -.202E+03 -.863E-02 0.465E+02   0.521E+01 0.250E-02 -.367E+00   -.290E-03 -.152E-06 -.271E-03
   0.198E+03 0.597E+00 -.442E+02   -.203E+03 -.682E+00 0.444E+02   0.552E+01 0.548E-01 -.851E-01   -.178E-03 0.624E-04 -.209E-03
   -.198E+03 0.187E-02 0.431E+02   0.204E+03 -.192E-02 -.431E+02   -.566E+01 0.332E-03 0.231E-01   0.953E-04 0.100E-06 0.385E-04
   -.198E+03 0.137E-01 0.431E+02   0.204E+03 -.152E-01 -.431E+02   -.567E+01 0.337E-02 0.265E-01   0.951E-04 -.256E-09 0.386E-04
   -.198E+03 -.128E-01 0.431E+02   0.204E+03 0.143E-01 -.431E+02   -.566E+01 -.308E-02 0.265E-01   0.953E-04 -.105E-06 0.385E-04
   0.146E+03 0.122E-02 0.101E+02   -.146E+03 -.918E-03 -.994E+01   0.409E+00 0.122E-03 -.660E-01   0.273E-03 -.605E-07 -.539E-04
 -----------------------------------------------------------------------------------------------
   0.833E+01 0.863E-03 0.223E+01   -.512E-12 0.219E-12 -.991E-12   -.836E+01 -.104E-01 -.225E+01   -.561E-02 -.372E-06 -.979E-03


 POSITION                                       TOTAL-FORCE (eV/Angst)
 -----------------------------------------------------------------------------------
     18.53296      6.12896     12.13953         0.002774      0.005784      0.001076
     27.10306      6.12874     15.66412         0.005300      0.003722     -0.000646
     14.25267      6.12897     12.12929         0.003900      0.002939      0.001635
     22.81485      6.12901     12.14286         0.000102      0.002460      0.002744
     16.39274      4.90329     12.13610         0.001636     -0.002747     -0.000498
     24.95788      4.90326     12.13714         0.001817     -0.000837      0.000800
     12.11282      4.90328     12.12680         0.017479     -0.026143     -0.007114
     20.67358      4.90334     12.14241         0.003443     -0.005305     -0.001364
     18.53294      1.22608     12.13954         0.003625     -0.006113      0.001112
     27.10306      1.22544     15.66411         0.005529     -0.002146     -0.000808
     14.25267      1.22597     12.12930         0.003164      0.002755      0.003688
     22.81485      1.22606     12.14288         0.000087     -0.004384      0.002407
     16.39279      0.00014     12.13528         0.001498     -0.000142      0.001229
     24.95774      0.00016     12.13679         0.002328      0.001174      0.002985
     12.11321      0.00014     12.12661         0.012578      0.023166     -0.006527
     20.67354      0.00016     12.14157         0.002103      0.000399      0.003181
     18.53296      3.67748     12.14037         0.003883      0.001236     -0.000968
     27.10342      3.67709     15.66427         0.005161      0.000945     -0.003308
     14.25244      3.67746     12.12996         0.008542     -0.003802      0.001509
     22.81495      3.67752     12.14343        -0.003262      0.000420      0.000121
     16.39276      2.45167     12.13613         0.000512      0.003151     -0.001348
     24.95791      2.45179     12.13716         0.000613     -0.000607      0.000594
     12.11282      2.45163     12.12678         0.024024      0.003268     -0.016260
     20.67359      2.45162     12.14238         0.003371      0.007682     -0.001061
      9.98677      6.12907     12.13704         0.080494      0.004235     -0.000889
     18.55647      6.12846     15.66142        -0.005326      0.006340     -0.001970
     14.27431      6.12862     15.66124        -0.013337      0.000041     -0.001256
     22.83697      6.12861     15.67062        -0.003143      0.001254      0.001735
     16.41565      4.90287     15.65905        -0.007958     -0.001440      0.000024
     24.97696      4.90292     15.67407        -0.004451     -0.002551     -0.001345
     12.13135      4.90287     15.66850        -0.078169      0.022817      0.002900
     20.69683      4.90292     15.66486        -0.005748     -0.003416      0.000670
      9.98672      1.22584     12.13708         0.301157      0.030961      0.052372
     18.55646      1.22561     15.66144        -0.006618     -0.008366     -0.002087
     14.27431      1.22558     15.66128        -0.013980     -0.011994     -0.002264
     22.83696      1.22562     15.67063        -0.003509     -0.001276      0.001728
     16.41572      7.35440     15.65994        -0.008439     -0.003499     -0.004125
     24.97647      7.35444     15.67424         0.004370      0.000304     -0.000829
     12.13149      7.35444     15.66897        -0.078282     -0.024481      0.002472
     20.69679      7.35444     15.66564        -0.002723      0.000081     -0.001507
      9.98633      3.67746     12.13688         0.304294     -0.034613      0.054259
     18.55639      3.67703     15.66072        -0.005838      0.002015     -0.000592
     14.27428      3.67707     15.66077        -0.011466      0.011783     -0.002470
     22.83711      3.67714     15.67030        -0.008208     -0.000841      0.000142
     16.41567      2.45124     15.65904        -0.006468      0.002846      0.000591
     24.97695      2.45132     15.67407        -0.004728      0.002679     -0.001443
     12.13132      2.45141     15.66852        -0.039476     -0.001091      0.001991
     20.69684      2.45131     15.66485        -0.006561      0.003715      0.000874
     17.10603      6.12899     12.13699        -0.002945      0.001612     -0.000574
     25.66756      6.12902     12.13296         0.001565      0.001193      0.001336
     12.82252      6.12894     12.12642        -0.040705      0.001257     -0.001016
     21.38701      6.12904     12.14236        -0.003540      0.000980      0.001642
     14.96511      4.90326     12.13158        -0.012238     -0.001107     -0.000190
     23.52751      4.90330     12.14207         0.000868     -0.001522      0.000357
     10.67089      4.90317     12.13134        -0.134132      0.078933      0.018652
     19.24653      4.90329     12.14054        -0.001912     -0.002012      0.000395
     17.10603      1.22596     12.13703        -0.002518     -0.001028     -0.000904
     25.66755      1.22597     12.13297         0.001052     -0.000901      0.001431
     12.82253      1.22599     12.12646        -0.027710     -0.010098     -0.002185
     21.38697      1.22596     12.14235        -0.000662     -0.002219      0.001617
     14.96517      0.00018     12.13072        -0.011941     -0.004252      0.002198
     23.52737      0.00019     12.14163         0.002919      0.000644      0.000829
     10.67134      0.00014     12.13120        -0.134471     -0.076467      0.021357
     19.24644      0.00022     12.13969         0.000427     -0.002022      0.002090
     17.10601      3.67749     12.13780        -0.001347     -0.000155     -0.002351
     25.66780      3.67753     12.13311         0.002467     -0.001260      0.005537
     12.82230      3.67744     12.12660        -0.026366      0.009201     -0.000222
     21.38705      3.67749     12.14286        -0.003979     -0.000029      0.003176
     14.96512      2.45168     12.13157        -0.011959      0.003729      0.000088
     23.52752      2.45176     12.14207         0.001211      0.001218      0.000547
     10.67088      2.45173     12.13136        -0.153711     -0.001940      0.013108
     19.24657      2.45173     12.14054        -0.004335      0.001554      0.000313
     17.84300      7.35437     15.66118         0.001905      0.000923     -0.000304
     26.41839      7.35443     15.67001         0.003154     -0.000136     -0.002093
     13.56172      7.35439     15.66343         0.014732      0.012091     -0.005530
     22.12448      7.35444     15.66939         0.003055      0.000723     -0.002731
     15.70220      6.12860     15.65979         0.013082      0.002805     -0.001444
     24.26722      6.12859     15.67417         0.001389      0.000736     -0.000325
     11.42170      6.12867     15.67317         0.031437     -0.000062      0.006832
     19.98352      6.12863     15.66424         0.002335      0.000751     -0.000261
     17.84279      2.45126     15.66033         0.008210      0.002090      0.000635
     26.41889      2.45137     15.66980         0.003662     -0.002564      0.000763
     13.56162      2.45133     15.66274         0.002616      0.001552     -0.006924
     22.12437      2.45132     15.66863         0.012306      0.003969      0.001608
     15.70221      1.22556     15.65981         0.009683     -0.007177     -0.000718
     24.26723      1.22566     15.67417         0.000212     -0.001670     -0.000294
     11.42171      1.22558     15.67316         0.023138      0.022421      0.025277
     19.98351      1.22559     15.66425         0.002119     -0.002781     -0.000314
     17.84281      4.90282     15.66033         0.008710     -0.002420      0.000988
     26.41894      4.90285     15.66981         0.000831      0.001462      0.000689
     13.56162      4.90288     15.66274         0.016266     -0.011906     -0.001944
     22.12439      4.90290     15.66863         0.010214     -0.003676      0.001709
     15.70226      3.67707     15.65926         0.005521      0.003496     -0.002028
     24.26743      3.67712     15.67398        -0.000280      0.001506      0.000218
     11.42143      3.67715     15.67285         0.022518     -0.022923      0.024465
     19.98350      3.67712     15.66359         0.001138      0.000772      0.000256
      9.97960      6.12860     15.68236        -0.227323      0.002483     -0.019524
      9.97914      3.67711     15.68201        -0.296423      0.333992     -0.023596
      9.97964      1.22555     15.68236        -0.303085     -0.337291     -0.024706
     27.10971      6.12897     12.12595         0.000881      0.003451      0.002767
     27.11017      3.67746     12.12646        -0.004703      0.001649     -0.000534
     27.10970      1.22597     12.12596         0.000066     -0.000874      0.002637
      9.29465      4.90300     15.68666         0.301732     -0.050942     -0.049851
      9.29471      2.45115     15.68667         0.501997      0.003134     -0.390681
      9.29498      7.35444     15.68702         0.297693      0.047837     -0.051985
     27.79449      0.00019     12.12331         0.002284     -0.002483     -0.001251
     27.79482      2.45160     12.12348        -0.005946     -0.000413     -0.000682
     27.79484      4.90333     12.12348        -0.004606      0.000764     -0.000903
      8.89362      6.12996     12.15181        -0.014116     -0.003490      0.004377
      8.89323      3.67747     12.15180        -0.150597      0.044846     -0.084651
      8.89360      1.22495     12.15184        -0.151180     -0.041450     -0.084620
     28.19618      6.12953     15.64955        -0.004391     -0.002658     -0.001892
     28.19658      3.67710     15.64968        -0.006240     -0.000043     -0.001583
     28.19619      1.22466     15.64955        -0.005076      0.002912     -0.001926
      8.20137      4.90363     15.69366        -0.088391      0.030410      0.044589
      8.20149      2.45062     15.69367        -0.311147      0.001832      0.508190
      8.20156      7.35446     15.69330        -0.084937     -0.032559      0.046202
     28.88791      0.00014     12.12011        -0.000474      0.000357     -0.000989
     28.88801      2.45102     12.11967         0.006620      0.001977      0.000070
     28.88809      4.90386     12.11969         0.004717     -0.001532      0.000078
      7.20146      2.44816     13.90597         0.422555      0.000417     -0.057454
 -----------------------------------------------------------------------------------
    total drift:                               -0.036238     -0.009493     -0.026755


--------------------------------------------------------------------------------------------------------



  FREE ENERGIE OF THE ION-ELECTRON SYSTEM (eV)
  ---------------------------------------------------
  free  energy   TOTEN  =     -1041.47146501 eV

  energy  without entropy=    -1041.40520572  energy(sigma->0) =    -1041.43833536



--------------------------------------------------------------------------------------------------------


    POTLOK:  cpu time    0.3520: real time    0.3546


--------------------------------------------------------------------------------------------------------


 stress matrix after NEB project (eV)
    -13.80991     -0.00328     -0.59212
     -0.00328     25.47885     -0.00367
     -0.59212     -0.00367    -15.51436
  FORCES: max atom, RMS     0.636115    0.127759
  FORCE total and by dimension    1.405351    0.508190
  Stress total and by dimension   32.882848   25.478847
 writing wavefunctions
     LOOP+:  cpu time 1850.7763: real time 1862.6463
    4ORBIT:  cpu time    0.0000: real time    0.0000

 total amount of memory used by VASP MPI-rank0   280966. kBytes
=======================================================================

   base      :      30000. kBytes
   nonlr-proj:       4989. kBytes
   fftplans  :      14214. kBytes
   grid      :      37253. kBytes
   one-center:        190. kBytes
   wavefun   :     194320. kBytes

  
  
 General timing and accounting informations for this job:
 ========================================================
  
                  Total CPU time used (sec):     1888.313
                            User time (sec):     1877.738
                          System time (sec):       10.575
                         Elapsed time (sec):     1901.790
  
                   Maximum memory used (kb):      467336.
                   Average memory used (kb):           0.
  
                          Minor page faults:      1228873
                          Major page faults:            2
                 Voluntary context switches:         8028
