 vasp.5.4.4.18Apr17-6-g9f103f2a35 (build Sep 10 2024 21:01:58) complex           
 executed on             LinuxGNU date 2025.04.05  10:07:43
 running on   32 total cores
 distrk:  each k-point on   32 cores,    1 groups
 distr:  one band on NCORES_PER_BAND=   4 cores,    8 groups


--------------------------------------------------------------------------------------------------------


 INCAR:
 POTCAR:    PAW_PBE C 08Apr2002                   
 POTCAR:    PAW_PBE Li 17Jan2003                  
 POTCAR:    PAW_PBE C 08Apr2002                   
   SHA256 =  253f7b50bb8d59471dbedb8285d89021f4a42ed1a2c5d38a03a736e69125dd95 C/
   COPYR  = (c) Copyright 08Apr2002 Georg Kresse                                
   COPYR  = This file is part of the software VASP. Any use, copying, and all ot
   COPYR  = If you do not have a valid VASP license, you may not use, copy or di
   VRHFIN =C: s2p2                                                              
   LEXCH  = PE                                                                  
   EATOM  =   147.1560 eV,   10.8157 Ry                                         
                                                                                
   TITEL  = PAW_PBE C 08Apr2002                                                 
   LULTRA =        F    use ultrasoft PP ?                                      
   IUNSCR =        1    unscreen: 0-lin 1-nonlin 2-no                           
   RPACOR =    1.200    partial core radius                                     
   POMASS =   12.011; ZVAL   =    4.000    mass and valenz                      
   RCORE  =    1.500    outmost cutoff radius                                   
   RWIGS  =    1.630; RWIGS  =    0.863    wigner-seitz radius (au A)           
   ENMAX  =  400.000; ENMIN  =  300.000 eV                                      
   ICORE  =        2    local potential                                         
   LCOR   =        T    correct aug charges                                     
   LPAW   =        T    paw PP                                                  
   EAUG   =  644.873                                                            
   DEXC   =    0.000                                                            
   RMAX   =    1.529    core radius for proj-oper                               
   RAUG   =    1.300    factor for augmentation sphere                          
   RDEP   =    1.501    radius for radial grids                                 
   RDEPT  =    1.300    core radius for aug-charge                              
                                                                                
   Atomic configuration                                                         
    4 entries                                                                   
     n  l   j            E        occ.                                          
     1  0  0.50      -273.3789   2.0000                                         
     2  0  0.50       -13.7508   2.0000                                         
     2  1  0.50        -5.2854   2.0000                                         
     3  2  1.50        -5.4423   0.0000                                         
   Description                                                                  
     l       E           TYP  RCUT    TYP  RCUT                                 
     0    -13.7508458     23  1.200                                             
     0     -8.2022199     23  1.200                                             
     1     -5.2854383     23  1.500                                             
     1     34.0145650     23  1.500                                             
     2     -5.4423304      7  1.500                                             
  local pseudopotential read in
  partial core-charges read in
  partial kinetic energy density read in
  atomic valenz-charges read in
  non local Contribution for L=           0  read in
    real space projection operators read in
  non local Contribution for L=           0  read in
    real space projection operators read in
  non local Contribution for L=           1  read in
    real space projection operators read in
  non local Contribution for L=           1  read in
    real space projection operators read in
    PAW grid and wavefunctions read in

   number of l-projection  operators is LMAX  =           4
   number of lm-projection operators is LMMAX =           8

 POTCAR:    PAW_PBE Li 17Jan2003                  
   SHA256 =  3d9d9bfd1dd25b20a3b919cb3191e6ef627605783dc2e149b9290ff31c32aa6e Li
   COPYR  = (c) Copyright 17Jan2003 Georg Kresse                                
   COPYR  = This file is part of the software VASP. Any use, copying, and all ot
   COPYR  = If you do not have a valid VASP license, you may not use, copy or di
   VRHFIN =Li: s1p0                                                             
   LEXCH  = PE                                                                  
   EATOM  =     5.3001 eV,    0.3895 Ry                                         
                                                                                
   TITEL  = PAW_PBE Li 17Jan2003                                                
   LULTRA =        F    use ultrasoft PP ?                                      
   IUNSCR =        1    unscreen: 0-lin 1-nonlin 2-no                           
   RPACOR =    1.500    partial core radius                                     
   POMASS =    7.010; ZVAL   =    1.000    mass and valenz                      
   RCORE  =    2.050    outmost cutoff radius                                   
   RWIGS  =    2.600; RWIGS  =    1.376    wigner-seitz radius (au A)           
   ENMAX  =  140.000; ENMIN  =  100.000 eV                                      
   ICORE  =        2    local potential                                         
   LCOR   =        T    correct aug charges                                     
   LPAW   =        T    paw PP                                                  
   EAUG   =  331.638                                                            
   DEXC   =    0.000                                                            
   RMAX   =    2.098    core radius for proj-oper                               
   RAUG   =    1.300    factor for augmentation sphere                          
   RDEP   =    2.094    radius for radial grids                                 
   RDEPT  =    1.810    core radius for aug-charge                              
                                                                                
   Atomic configuration                                                         
    4 entries                                                                   
     n  l   j            E        occ.                                          
     1  0  0.50       -51.8549   2.0000                                         
     2  0  0.50        -2.8742   1.0000                                         
     2  1  0.50        -1.3606   0.0000                                         
     3  2  1.50        -1.3606   0.0000                                         
   Description                                                                  
     l       E           TYP  RCUT    TYP  RCUT                                 
     0     -2.8742052     23  2.050                                             
     0     27.2116520     23  2.050                                             
     1     -1.3605826     23  2.050                                             
     2     -1.3605826     23  2.050                                             
  local pseudopotential read in
  partial core-charges read in
  partial kinetic energy density read in
  atomic valenz-charges read in
  non local Contribution for L=           0  read in
    real space projection operators read in
  non local Contribution for L=           0  read in
    real space projection operators read in
  non local Contribution for L=           1  read in
    real space projection operators read in
    PAW grid and wavefunctions read in

   number of l-projection  operators is LMAX  =           3
   number of lm-projection operators is LMMAX =           5

 Optimization of the real space projectors (new method)

 maximal supplied QI-value         = 25.13
 optimisation between [QCUT,QGAM] = [ 10.05, 20.36] = [ 28.30,116.06] Ry 
 Optimized for a Real-space Cutoff    1.30 Angstroem

   l    n(q)    QCUT    max X(q) W(low)/X(q) W(high)/X(q)  e(spline) 
   0      8    10.053   115.676    0.49E-03    0.72E-03    0.18E-06
   0      8    10.053    87.132    0.49E-03    0.71E-03    0.18E-06
   1      7    10.053     4.429    0.32E-03    0.31E-03    0.18E-06
   1      7    10.053     2.733    0.23E-03    0.19E-03    0.20E-06
 Optimization of the real space projectors (new method)

 maximal supplied QI-value         = 18.33
 optimisation between [QCUT,QGAM] = [ 10.08, 20.35] = [ 28.46,115.93] Ry 
 Optimized for a Real-space Cutoff    1.16 Angstroem

   l    n(q)    QCUT    max X(q) W(low)/X(q) W(high)/X(q)  e(spline) 
   0      7    10.082    33.825    0.44E-03    0.14E-03    0.78E-07
   0      7    10.082     8.944    0.33E-03    0.12E-03    0.56E-07
   1      6    10.082     4.214    0.33E-03    0.37E-03    0.39E-07
  PAW_PBE C 08Apr2002                   :
 energy of atom  1       EATOM= -147.1560
 kinetic energy error for atom=    0.0288 (will be added to EATOM!!)
  PAW_PBE Li 17Jan2003                  :
 energy of atom  2       EATOM=   -5.3001
 kinetic energy error for atom=    0.0000 (will be added to EATOM!!)


 POSCAR: C4                                      
  positions in direct lattice
  velocities in cartesian coordinates
  No initial velocities read in
 exchange correlation table for  LEXCH =        8
   RHO(1)=    0.500       N(1)  =     2000
   RHO(2)=  100.500       N(2)  =     4000

 VTST: version 3.2, (02/03/18)

 CHAIN: initializing optimizer
 
 OPT: Using VASP QUASI-newton optimizer
 CHAIN: Read ICHAIN            0

 POSCAR: C4                                      
  positions in direct lattice
  velocities in cartesian coordinates
  No initial velocities read in



--------------------------------------------------------------------------------------------------------


 ion  position               nearest neighbor table
   1  0.000  0.000  0.435-  27 1.42  19 1.42  21 1.42
   2  1.000  0.333  0.435-  20 1.42  25 1.42  19 1.42
   3  1.000  0.667  0.435-  26 1.42  21 1.42  20 1.42
   4  0.333  0.000  0.435-  21 1.42  24 1.42  22 1.42
   5  0.333  0.333  0.435-  23 1.42  19 1.42  22 1.42
   6  0.333  0.667  0.435-  20 1.42  24 1.42  23 1.42
   7  0.667  0.000  0.435-  27 1.42  24 1.42  25 1.42
   8  0.667  0.333  0.435-  26 1.42  22 1.42  25 1.42
   9  0.667  0.667  0.435-  23 1.42  27 1.42  26 1.42
  10  0.000  0.000  0.565-  36 1.42  34 1.42  28 1.42
  11  1.000  0.333  0.565-  34 1.42  29 1.42  35 1.42
  12  1.000  0.667  0.565-  30 1.42  35 1.42  36 1.42
  13  0.333  0.000  0.565-  30 1.42  28 1.42  31 1.42
  14  0.333  0.333  0.565-  28 1.42  32 1.42  29 1.42
  15  0.333  0.667  0.565-  29 1.42  33 1.42  30 1.42
  16  0.667  0.000  0.565-  33 1.42  34 1.42  31 1.42
  17  0.667  0.333  0.565-  35 1.42  31 1.42  32 1.42
  18  0.667  0.667  0.565-  36 1.42  32 1.42  33 1.42
  19  0.111  0.222  0.435-   1 1.42   5 1.42   2 1.42
  20  0.111  0.556  0.435-   2 1.42   6 1.42   3 1.42
  21  0.111  0.889  0.435-   4 1.42   1 1.42   3 1.42
  22  0.444  0.222  0.435-   8 1.42   4 1.42   5 1.42
  23  0.444  0.556  0.435-   5 1.42   9 1.42   6 1.42
  24  0.444  0.889  0.435-   4 1.42   7 1.42   6 1.42
  25  0.778  0.222  0.435-   2 1.42   7 1.42   8 1.42
  26  0.778  0.556  0.435-   8 1.42   3 1.42   9 1.42
  27  0.778  0.889  0.435-   7 1.42   1 1.42   9 1.42
  28  0.222  0.111  0.565-  13 1.42  14 1.42  10 1.42
  29  0.222  0.444  0.565-  15 1.42  11 1.42  14 1.42
  30  0.222  0.778  0.565-  13 1.42  12 1.42  15 1.42
  31  0.556  0.111  0.565-  16 1.42  17 1.42  13 1.42
  32  0.556  0.444  0.565-  18 1.42  14 1.42  17 1.42
  33  0.556  0.778  0.565-  16 1.42  18 1.42  15 1.42
  34  0.889  0.111  0.565-  16 1.42  10 1.42  11 1.42
  35  0.889  0.444  0.565-  17 1.42  12 1.42  11 1.42
  36  0.889  0.778  0.565-  10 1.42  18 1.42  12 1.42
  37  0.556  0.444  0.000-

  LATTYP: Found a hexagonal cell.
 ALAT       =     7.4018732118
 C/A-ratio  =     3.7562213088
  
  Lattice vectors:
  
 A1 = (   7.4018740654,   0.0000000000,   0.0000000000)
 A2 = (  -3.7009378863,   6.4102104834,   0.0000000000)
 A3 = (   0.0000000000,   0.0000000000,  27.8030738831)


Analysis of symmetry for initial positions (statically):
=====================================================================
 Subroutine PRICEL returns:
 Original cell was already a primitive cell.
 

 Routine SETGRP: Setting up the symmetry group for a 
 hexagonal supercell.


 Subroutine GETGRP returns: Found  6 space group operations
 (whereof  2 operations were pure point group operations)
 out of a pool of 24 trial point group operations.


The static configuration has the point symmetry C_1h.
 The point group associated with its full space group is C_3v.


Analysis of symmetry for dynamics (positions and initial velocities):
=====================================================================
 Subroutine PRICEL returns:
 Original cell was already a primitive cell.
 

 Routine SETGRP: Setting up the symmetry group for a 
 hexagonal supercell.


 Subroutine GETGRP returns: Found  6 space group operations
 (whereof  2 operations were pure point group operations)
 out of a pool of 24 trial point group operations.


The dynamic configuration has the point symmetry C_1h.
 The point group associated with its full space group is C_3v.


 Subroutine INISYM returns: Found  6 space group operations
 (whereof  2 operations are pure point group operations),
 and found     1 'primitive' translations



 KPOINTS: Regular k-point mesh                    

Automatic generation of k-mesh.
Space group operators:
 irot       det(A)        alpha          n_x          n_y          n_z        tau_x        tau_y        tau_z
    1     1.000000     0.000000     1.000000     0.000000     0.000000     0.000000     0.000000     0.000000
    2    -1.000000   180.000000    -0.500000    -0.866025     0.000000     0.000000     0.000000     0.000000
    3     1.000000   120.000000     0.000000     0.000000    -1.000000     0.000000     0.333333     0.000000
    4     1.000000   120.000000     0.000000     0.000000     1.000000     0.666667     0.000000     0.000000
    5    -1.000000   180.000000     1.000000     0.000000     0.000000     0.666667     0.000000     0.000000
    6    -1.000000   180.000000     0.500000    -0.866025     0.000000    -0.000000     0.333333     0.000000
 
 Subroutine IBZKPT returns following result:
 ===========================================
 
 Found     27 irreducible k-points:
 
 Following reciprocal coordinates:
            Coordinates               Weight
  0.000000  0.000000  0.000000      1.000000
  0.066667  0.000000  0.000000      6.000000
  0.133333  0.000000  0.000000      6.000000
  0.200000  0.000000  0.000000      6.000000
  0.266667  0.000000  0.000000      6.000000
  0.333333  0.000000  0.000000      6.000000
  0.400000  0.000000  0.000000      6.000000
  0.466667  0.000000  0.000000      6.000000
  0.066667  0.066667  0.000000      6.000000
  0.133333  0.066667  0.000000     12.000000
  0.200000  0.066667  0.000000     12.000000
  0.266667  0.066667  0.000000     12.000000
  0.333333  0.066667  0.000000     12.000000
  0.400000  0.066667  0.000000     12.000000
  0.466667  0.066667  0.000000      6.000000
  0.133333  0.133333  0.000000      6.000000
  0.200000  0.133333  0.000000     12.000000
  0.266667  0.133333  0.000000     12.000000
  0.333333  0.133333  0.000000     12.000000
  0.400000  0.133333  0.000000     12.000000
  0.200000  0.200000  0.000000      6.000000
  0.266667  0.200000  0.000000     12.000000
  0.333333  0.200000  0.000000     12.000000
  0.400000  0.200000  0.000000      6.000000
  0.266667  0.266667  0.000000      6.000000
  0.333333  0.266667  0.000000     12.000000
  0.333333  0.333333  0.000000      2.000000
 
 Following cartesian coordinates:
            Coordinates               Weight
  0.000000  0.000000  0.000000      1.000000
  0.009007  0.005200  0.000000      6.000000
  0.018013  0.010400  0.000000      6.000000
  0.027020  0.015600  0.000000      6.000000
  0.036027  0.020800  0.000000      6.000000
  0.045034  0.026000  0.000000      6.000000
  0.054040  0.031200  0.000000      6.000000
  0.063047  0.036400  0.000000      6.000000
  0.009007  0.015600  0.000000      6.000000
  0.018013  0.020800  0.000000     12.000000
  0.027020  0.026000  0.000000     12.000000
  0.036027  0.031200  0.000000     12.000000
  0.045034  0.036400  0.000000     12.000000
  0.054040  0.041600  0.000000     12.000000
  0.063047  0.046800  0.000000      6.000000
  0.018013  0.031200  0.000000      6.000000
  0.027020  0.036400  0.000000     12.000000
  0.036027  0.041600  0.000000     12.000000
  0.045034  0.046800  0.000000     12.000000
  0.054040  0.052000  0.000000     12.000000
  0.027020  0.046800  0.000000      6.000000
  0.036027  0.052000  0.000000     12.000000
  0.045034  0.057200  0.000000     12.000000
  0.054040  0.062400  0.000000      6.000000
  0.036027  0.062400  0.000000      6.000000
  0.045034  0.067600  0.000000     12.000000
  0.045034  0.078001  0.000000      2.000000
 


--------------------------------------------------------------------------------------------------------




 Dimension of arrays:
   k-points           NKPTS =     27   k-points in BZ     NKDIM =     27   number of bands    NBANDS=     96
   number of dos      NEDOS =    301   number of ions     NIONS =     37
   non local maximal  LDIM  =      4   non local SUM 2l+1 LMDIM =      8
   total plane-waves  NPLWV = 181440
   max r-space proj   IRMAX =   1319   max aug-charges    IRDMAX=   4600
   dimension x,y,z NGX =    36 NGY =   36 NGZ =  140
   dimension x,y,z NGXF=    72 NGYF=   72 NGZF=  280
   support grid    NGXF=    72 NGYF=   72 NGZF=  280
   ions per type =              36   1
   NGX,Y,Z   is equivalent  to a cutoff of   8.09,  8.09,  8.37 a.u.
   NGXF,Y,Z  is equivalent  to a cutoff of  16.17, 16.17, 16.74 a.u.

 SYSTEM =  unknown system                          
 POSCAR =  C4                                      

 Startparameter for this run:
   NWRITE =      2    write-flag & timer
   PREC   = normal    normal or accurate (medium, high low for compatibility)
   ISTART =      0    job   : 0-new  1-cont  2-samecut
   ICHARG =      2    charge: 1-file 2-atom 10-const
   ISPIN  =      1    spin polarized calculation?
   LNONCOLLINEAR =      F non collinear calculations
   LSORBIT =      F    spin-orbit coupling
   INIWAV =      1    electr: 0-lowe 1-rand  2-diag
   LASPH  =      F    aspherical Exc in radial PAW
   METAGGA=      F    non-selfconsistent MetaGGA calc.

 Electronic Relaxation 1
   ENCUT  =  400.0 eV  29.40 Ry    5.42 a.u.  12.07 12.07 45.34*2*pi/ulx,y,z
   ENINI  =  400.0     initial cutoff
   ENAUG  =  644.9 eV  augmentation charge cutoff
   NELM   =    100;   NELMIN=  2; NELMDL= -5     # of ELM steps 
   EDIFF  = 0.1E-05   stopping-criterion for ELM
   LREAL  =      T    real-space projection
   NLSPLINE    = F    spline interpolate recip. space projectors
   LCOMPAT=      F    compatible to vasp.4.4
   GGA_COMPAT  = T    GGA compatible to vasp.4.4-vasp.4.6
   LMAXPAW     = -100 max onsite density
   LMAXMIX     =    2 max onsite mixed and CHGCAR
   VOSKOWN=      0    Vosko Wilk Nusair interpolation
   ROPT   =   -0.00050  -0.00050
 Ionic relaxation
   EDIFFG = -.1E-01   stopping-criterion for IOM
   NSW    =    200    number of steps for IOM
   NBLOCK =      1;   KBLOCK =    200    inner block; outer block 
   IBRION =      1    ionic relax: 0-MD 1-quasi-New 2-CG
   NFREE  =      0    steps in history (QN), initial steepest desc. (CG)
   ISIF   =      2    stress and relaxation
   IWAVPR =     11    prediction:  0-non 1-charg 2-wave 3-comb
   ISYM   =      2    0-nonsym 1-usesym 2-fastsym
   LCORR  =      T    Harris-Foulkes like correction to forces

   POTIM  = 0.5000    time-step for ionic-motion
   TEIN   =    0.0    initial temperature
   TEBEG  =    0.0;   TEEND  =   0.0 temperature during run
   SMASS  =  -3.00    Nose mass-parameter (am)
   estimated Nose-frequenzy (Omega)   =  0.10E-29 period in steps =****** mass=  -0.125E-26a.u.
   SCALEE = 1.0000    scale energy and forces
   NPACO  =    256;   APACO  = 16.0  distance and # of slots for P.C.
   PSTRESS=    0.0 pullay stress

  Mass of Ions in am
   POMASS =  12.01  7.01
  Ionic Valenz
   ZVAL   =   4.00  1.00
  Atomic Wigner-Seitz radii
   RWIGS  =  -1.00 -1.00
  virtual crystal weights 
   VCA    =   1.00  1.00
   NELECT =     145.0000    total number of electrons
   NUPDOWN=      -1.0000    fix difference up-down

 DOS related values:
   EMIN   =  10.00;   EMAX   =-10.00  energy-range for DOS
   EFERMI =   0.00
   ISMEAR =     0;   SIGMA  =   0.10  broadening in eV -4-tet -1-fermi 0-gaus

 Electronic relaxation 2 (details)
   IALGO  =     38    algorithm
   LDIAG  =      T    sub-space diagonalisation (order eigenvalues)
   LSUBROT=      F    optimize rotation matrix (better conditioning)
   TURBO    =      0    0=normal 1=particle mesh
   IRESTART =      0    0=no restart 2=restart with 2 vectors
   NREBOOT  =      0    no. of reboots
   NMIN     =      0    reboot dimension
   EREF     =   0.00    reference energy to select bands
   IMIX   =      4    mixing-type and parameters
     AMIX     =   0.40;   BMIX     =  1.00
     AMIX_MAG =   1.60;   BMIX_MAG =  1.00
     AMIN     =   0.10
     WC   =   100.;   INIMIX=   1;  MIXPRE=   1;  MAXMIX= -45

 Intra band minimization:
   WEIMIN = 0.0010     energy-eigenvalue tresh-hold
   EBREAK =  0.26E-08  absolut break condition
   DEPER  =   0.30     relativ break condition  

   TIME   =   0.40     timestep for ELM

  volume/ion in A,a.u.               =      35.65       240.60
  Fermi-wavevector in a.u.,A,eV,Ry     =   0.784203  1.481929  8.367237  0.614975
  Thomas-Fermi vector in A             =   1.888288

 Write flags
   LWAVE        =      T    write WAVECAR
   LDOWNSAMPLE  =      F    k-point downsampling of WAVECAR
   LCHARG       =      T    write CHGCAR
   LVTOT        =      F    write LOCPOT, total local potential
   LVHAR        =      F    write LOCPOT, Hartree potential only
   LELF         =      F    write electronic localiz. function (ELF)
   LORBIT       =      0    0 simple, 1 ext, 2 COOP (PROOUT), +10 PAW based schemes


 Dipole corrections
   LMONO  =      F    monopole corrections only (constant potential shift)
   LDIPOL =      F    correct potential (dipole corrections)
   IDIPOL =      0    1-x, 2-y, 3-z, 4-all directions 
   EPSILON=  1.0000000 bulk dielectric constant

 Exchange correlation treatment:
   GGA     =    --    GGA type
   LEXCH   =     8    internal setting for exchange type
   VOSKOWN=      0    Vosko Wilk Nusair interpolation
   LHFCALC =     F    Hartree Fock is set to
   LHFONE  =     F    Hartree Fock one center treatment
   AEXX    =    0.0000 exact exchange contribution

 Linear response parameters
   LEPSILON=     F    determine dielectric tensor
   LRPA    =     F    only Hartree local field effects (RPA)
   LNABLA  =     F    use nabla operator in PAW spheres
   LVEL    =     F    velocity operator in full k-point grid
   LINTERFAST=   F  fast interpolation
   KINTER  =     0    interpolate to denser k-point grid
   CSHIFT  =0.1000    complex shift for real part using Kramers Kronig
   OMEGAMAX=  -1.0    maximum frequency
   DEG_THRESHOLD= 0.2000000E-02 threshold for treating states as degnerate
   RTIME   =   -0.100 relaxation time in fs
  (WPLASMAI=    0.000 imaginary part of plasma frequency in eV, 0.658/RTIME)
   DFIELD  = 0.0000000 0.0000000 0.0000000 field for delta impulse in time

 Orbital magnetization related:
   ORBITALMAG=     F  switch on orbital magnetization
   LCHIMAG   =     F  perturbation theory with respect to B field
   DQ        =  0.001000  dq finite difference perturbation B field
   LLRAUG    =     F  two centre corrections for induced B field



--------------------------------------------------------------------------------------------------------


 quasi-Newton-method for relaxation of ions
 charge density and potential will be updated during run
 non-spin polarized calculation
 Variant of blocked Davidson
 Davidson routine will perform the subspace rotation
 perform sub-space diagonalisation
    after iterative eigenvector-optimisation
 modified Broyden-mixing scheme, WC =      100.0
 initial mixing is a Kerker type mixing with AMIX =  0.4000 and BMIX =      1.0000
 Hartree-type preconditioning will be used
 using additional bands           23
 real space projection scheme for non local part
 use partial core corrections
 calculate Harris-corrections to forces   (improved forces if not selfconsistent)
 use gradient corrections 
 use of overlap-Matrix (Vanderbilt PP)
 Gauss-broadening in eV      SIGMA  =   0.10


--------------------------------------------------------------------------------------------------------


  energy-cutoff  :      400.00
  volume of cell :     1319.19
      direct lattice vectors                 reciprocal lattice vectors
     7.401874065  0.000000000  0.000000000     0.135100921  0.078000577 -0.000000000
    -3.700937886  6.410210483  0.000000000     0.000000000  0.156001118  0.000000000
     0.000000000  0.000000000 27.803073883     0.000000000 -0.000000000  0.035967246

  length of vectors
     7.401874065  7.401874065 27.803073883     0.156001118  0.156001118  0.035967246



 k-points in units of 2pi/SCALE and weight: Regular k-point mesh                    
   0.00000000  0.00000000  0.00000000       0.004
   0.00900673  0.00520004  0.00000000       0.027
   0.01801346  0.01040008  0.00000000       0.027
   0.02702018  0.01560012  0.00000000       0.027
   0.03602691  0.02080015  0.00000000       0.027
   0.04503364  0.02600019  0.00000000       0.027
   0.05404037  0.03120023  0.00000000       0.027
   0.06304710  0.03640027  0.00000000       0.027
   0.00900673  0.01560011  0.00000000       0.027
   0.01801346  0.02080015  0.00000000       0.053
   0.02702018  0.02600019  0.00000000       0.053
   0.03602691  0.03120023  0.00000000       0.053
   0.04503364  0.03640027  0.00000000       0.053
   0.05404037  0.04160031  0.00000000       0.053
   0.06304710  0.04680034  0.00000000       0.027
   0.01801346  0.03120023  0.00000000       0.027
   0.02702018  0.03640026  0.00000000       0.053
   0.03602691  0.04160030  0.00000000       0.053
   0.04503364  0.04680034  0.00000000       0.053
   0.05404037  0.05200038  0.00000000       0.053
   0.02702018  0.04680034  0.00000000       0.027
   0.03602691  0.05200038  0.00000000       0.053
   0.04503364  0.05720042  0.00000000       0.053
   0.05404037  0.06240045  0.00000000       0.027
   0.03602691  0.06240045  0.00000000       0.027
   0.04503364  0.06760049  0.00000000       0.053
   0.04503364  0.07800056  0.00000000       0.009

 k-points in reciprocal lattice and weights: Regular k-point mesh                    
   0.00000000  0.00000000  0.00000000       0.004
   0.06666667  0.00000000  0.00000000       0.027
   0.13333333  0.00000000  0.00000000       0.027
   0.20000000  0.00000000  0.00000000       0.027
   0.26666667  0.00000000  0.00000000       0.027
   0.33333333  0.00000000  0.00000000       0.027
   0.40000000  0.00000000  0.00000000       0.027
   0.46666667  0.00000000  0.00000000       0.027
   0.06666667  0.06666667  0.00000000       0.027
   0.13333333  0.06666667  0.00000000       0.053
   0.20000000  0.06666667  0.00000000       0.053
   0.26666667  0.06666667  0.00000000       0.053
   0.33333333  0.06666667  0.00000000       0.053
   0.40000000  0.06666667  0.00000000       0.053
   0.46666667  0.06666667  0.00000000       0.027
   0.13333333  0.13333333  0.00000000       0.027
   0.20000000  0.13333333  0.00000000       0.053
   0.26666667  0.13333333  0.00000000       0.053
   0.33333333  0.13333333  0.00000000       0.053
   0.40000000  0.13333333  0.00000000       0.053
   0.20000000  0.20000000  0.00000000       0.027
   0.26666667  0.20000000  0.00000000       0.053
   0.33333333  0.20000000  0.00000000       0.053
   0.40000000  0.20000000  0.00000000       0.027
   0.26666667  0.26666667  0.00000000       0.027
   0.33333333  0.26666667  0.00000000       0.053
   0.33333333  0.33333333  0.00000000       0.009

 position of ions in fractional coordinates (direct lattice) 
   0.00000000  0.00000000  0.43536734
   1.00000000  0.33333334  0.43536734
   1.00000000  0.66666669  0.43536734
   0.33333334  0.00000000  0.43536734
   0.33333334  0.33333334  0.43536734
   0.33333334  0.66666669  0.43536734
   0.66666669  0.00000000  0.43536734
   0.66666669  0.33333334  0.43536734
   0.66666669  0.66666669  0.43536734
   0.00000000  0.00000000  0.56463263
   1.00000000  0.33333334  0.56463263
   1.00000000  0.66666669  0.56463263
   0.33333334  0.00000000  0.56463263
   0.33333334  0.33333334  0.56463263
   0.33333334  0.66666669  0.56463263
   0.66666669  0.00000000  0.56463263
   0.66666669  0.33333334  0.56463263
   0.66666669  0.66666669  0.56463263
   0.11111110  0.22222221  0.43536251
   0.11111110  0.55555552  0.43536251
   0.11111114  0.88888896  0.43536251
   0.44444448  0.22222221  0.43536251
   0.44444445  0.55555552  0.43536251
   0.44444448  0.88888896  0.43536251
   0.77777779  0.22222221  0.43536251
   0.77777779  0.55555552  0.43536251
   0.77777779  0.88888896  0.43536251
   0.22222224  0.11111110  0.56463746
   0.22222224  0.44444448  0.56463746
   0.22222221  0.77777779  0.56463746
   0.55555558  0.11111110  0.56463746
   0.55555558  0.44444448  0.56463746
   0.55555558  0.77777779  0.56463746
   0.88888890  0.11111110  0.56463746
   0.88888890  0.44444448  0.56463746
   0.88888890  0.77777779  0.56463746
   0.55555558  0.44444448  0.00000000

 position of ions in cartesian coordinates  (Angst):
   0.00000000  0.00000000 12.10455039
   6.16822807  2.13673689 12.10455039
   4.93458207  4.27347378 12.10455039
   2.46729143  0.00000000 12.10455039
   1.23364543  2.13673689 12.10455039
  -0.00000057  4.27347378 12.10455039
   4.93458286  0.00000000 12.10455039
   3.70093686  2.13673689 12.10455039
   2.46729086  4.27347378 12.10455039
   0.00000000  0.00000000 15.69852266
   6.16822807  2.13673689 15.69852266
   4.93458207  4.27347378 15.69852266
   2.46729143  0.00000000 15.69852266
   1.23364543  2.13673689 15.69852266
  -0.00000057  4.27347378 15.69852266
   4.93458286  0.00000000 15.69852266
   3.70093686  2.13673689 15.69852266
   2.46729086  4.27347378 15.69852266
  -0.00000019  1.42449113 12.10441598
  -1.23364608  3.56122783 12.10441598
  -2.46729213  5.69796530 12.10441598
   2.46729146  1.42449113 12.10441598
   1.23364535  3.56122783 12.10441598
  -0.00000076  5.69796530 12.10441598
   4.93458267  1.42449113 12.10441598
   3.70093678  3.56122783 12.10441598
   2.46729045  5.69796530 12.10441598
   1.23364573  0.71224557 15.69865707
  -0.00000038  2.84898265 15.69865707
  -1.23364649  4.98571935 15.69865707
   3.70093716  0.71224557 15.69865707
   2.46729105  2.84898265 15.69865707
   1.23364516  4.98571935 15.69865707
   6.16822837  0.71224557 15.69865707
   4.93458226  2.84898265 15.69865707
   3.70093637  4.98571935 15.69865707
   2.46729105  2.84898265  0.00000000



--------------------------------------------------------------------------------------------------------


 k-point  1 :   0.0000 0.0000 0.0000  plane waves:   23887
 k-point  2 :   0.0667 0.0000 0.0000  plane waves:   23855
 k-point  3 :   0.1333 0.0000 0.0000  plane waves:   23877
 k-point  4 :   0.2000 0.0000 0.0000  plane waves:   23929
 k-point  5 :   0.2667 0.0000 0.0000  plane waves:   23977
 k-point  6 :   0.3333 0.0000 0.0000  plane waves:   23955
 k-point  7 :   0.4000 0.0000 0.0000  plane waves:   23995
 k-point  8 :   0.4667 0.0000 0.0000  plane waves:   24004
 k-point  9 :   0.0667 0.0667 0.0000  plane waves:   23886
 k-point 10 :   0.1333 0.0667 0.0000  plane waves:   23936
 k-point 11 :   0.2000 0.0667 0.0000  plane waves:   23938
 k-point 12 :   0.2667 0.0667 0.0000  plane waves:   23964
 k-point 13 :   0.3333 0.0667 0.0000  plane waves:   23975
 k-point 14 :   0.4000 0.0667 0.0000  plane waves:   23986
 k-point 15 :   0.4667 0.0667 0.0000  plane waves:   23976
 k-point 16 :   0.1333 0.1333 0.0000  plane waves:   23970
 k-point 17 :   0.2000 0.1333 0.0000  plane waves:   23976
 k-point 18 :   0.2667 0.1333 0.0000  plane waves:   23962
 k-point 19 :   0.3333 0.1333 0.0000  plane waves:   23996
 k-point 20 :   0.4000 0.1333 0.0000  plane waves:   23986
 k-point 21 :   0.2000 0.2000 0.0000  plane waves:   23984
 k-point 22 :   0.2667 0.2000 0.0000  plane waves:   23998
 k-point 23 :   0.3333 0.2000 0.0000  plane waves:   23999
 k-point 24 :   0.4000 0.2000 0.0000  plane waves:   23978
 k-point 25 :   0.2667 0.2667 0.0000  plane waves:   23980
 k-point 26 :   0.3333 0.2667 0.0000  plane waves:   23973
 k-point 27 :   0.3333 0.3333 0.0000  plane waves:   23952

 maximum and minimum number of plane-waves per node :      6023     5941

 maximum number of plane-waves:     24004
 maximum index in each direction: 
   IXMAX=   12   IYMAX=   12   IZMAX=   45
   IXMIN=  -12   IYMIN=  -12   IZMIN=  -45


 real space projection operators:
  total allocation   :       2790.43 KBytes
  max/ min on nodes  :        710.12        688.02


 parallel 3D FFT for wavefunctions:
    minimum data exchange during FFTs selected (reduces bandwidth)
 parallel 3D FFT for charge:
    minimum data exchange during FFTs selected (reduces bandwidth)


 total amount of memory used by VASP MPI-rank0    71894. kBytes
=======================================================================

   base      :      30000. kBytes
   nonlr-proj:       1662. kBytes
   fftplans  :       3336. kBytes
   grid      :       5223. kBytes
   one-center:         30. kBytes
   wavefun   :      31643. kBytes

     INWAV:  cpu time    0.0000: real time    0.0000
 Broyden mixing: mesh for mixing (old mesh)
   NGX = 25   NGY = 25   NGZ = 91
  (NGX  = 72   NGY  = 72   NGZ  =280)
  gives a total of  56875 points

 initial charge density was supplied:
 charge density of overlapping atoms calculated
 number of electron     145.0000000 magnetization 
 keeping initial charge density in first step


--------------------------------------------------------------------------------------------------------


 Maximum index for non-local projection operator          309
 Maximum index for augmentation-charges          148 (set IRDMAX)


--------------------------------------------------------------------------------------------------------


 First call to EWALD:  gamma=   0.162
 Maximum number of real-space cells 4x 4x 1
 Maximum number of reciprocal cells 2x 2x 6

    FEWALD:  cpu time    0.0028: real time    0.0029


--------------------------------------- Iteration      1(   1)  ---------------------------------------


    POTLOK:  cpu time    0.0344: real time    0.0389
    SETDIJ:  cpu time    0.0026: real time    0.0028
     EDDAV:  cpu time    3.5120: real time    3.5428
       DOS:  cpu time    0.0010: real time    0.0010
    --------------------------------------------
      LOOP:  cpu time    3.5500: real time    3.5855

 eigenvalue-minimisations  :  5864
 total energy-change (2. order) : 0.1125049E+04  (-0.5039854E+04)
 number of electron     145.0000000 magnetization 
 augmentation part      145.0000000 magnetization 

 Free energy of the ion-electron system (eV)
  ---------------------------------------------------
  alpha Z        PSCENC =        81.55114726
  Ewald energy   TEWEN  =     50399.08796271
  -Hartree energ DENC   =    -54396.33484940
  -exchange      EXHF   =         0.00000000
  -V(xc)+E(xc)   XCENC  =       470.31607200
  PAW double counting   =      3914.45628527    -3929.39650609
  entropy T*S    EENTRO =        -0.05398684
  eigenvalues    EBANDS =      -716.45693437
  atomic energy  EATOM  =      5301.88014825
  Solvation  Ediel_sol  =         0.00000000
  ---------------------------------------------------
  free energy    TOTEN  =      1125.04933878 eV

  energy without entropy =     1125.10332563  energy(sigma->0) =     1125.07633221


--------------------------------------------------------------------------------------------------------




--------------------------------------- Iteration      1(   2)  ---------------------------------------


     EDDAV:  cpu time    4.3272: real time    4.3614
       DOS:  cpu time    0.0008: real time    0.0008
    --------------------------------------------
      LOOP:  cpu time    4.3280: real time    4.3622

 eigenvalue-minimisations  :  7624
 total energy-change (2. order) :-0.1277084E+04  (-0.1209661E+04)
 number of electron     145.0000000 magnetization 
 augmentation part      145.0000000 magnetization 

 Free energy of the ion-electron system (eV)
  ---------------------------------------------------
  alpha Z        PSCENC =        81.55114726
  Ewald energy   TEWEN  =     50399.08796271
  -Hartree energ DENC   =    -54396.33484940
  -exchange      EXHF   =         0.00000000
  -V(xc)+E(xc)   XCENC  =       470.31607200
  PAW double counting   =      3914.45628527    -3929.39650609
  entropy T*S    EENTRO =        -0.00920400
  eigenvalues    EBANDS =     -1993.58538547
  atomic energy  EATOM  =      5301.88014825
  Solvation  Ediel_sol  =         0.00000000
  ---------------------------------------------------
  free energy    TOTEN  =      -152.03432946 eV

  energy without entropy =     -152.02512546  energy(sigma->0) =     -152.02972746


--------------------------------------------------------------------------------------------------------




--------------------------------------- Iteration      1(   3)  ---------------------------------------


     EDDAV:  cpu time    3.6252: real time    3.6544
       DOS:  cpu time    0.0008: real time    0.0008
    --------------------------------------------
      LOOP:  cpu time    3.6260: real time    3.6552

 eigenvalue-minimisations  :  6336
 total energy-change (2. order) :-0.2005621E+03  (-0.1996723E+03)
 number of electron     145.0000000 magnetization 
 augmentation part      145.0000000 magnetization 

 Free energy of the ion-electron system (eV)
  ---------------------------------------------------
  alpha Z        PSCENC =        81.55114726
  Ewald energy   TEWEN  =     50399.08796271
  -Hartree energ DENC   =    -54396.33484940
  -exchange      EXHF   =         0.00000000
  -V(xc)+E(xc)   XCENC  =       470.31607200
  PAW double counting   =      3914.45628527    -3929.39650609
  entropy T*S    EENTRO =        -0.01276680
  eigenvalues    EBANDS =     -2194.14394733
  atomic energy  EATOM  =      5301.88014825
  Solvation  Ediel_sol  =         0.00000000
  ---------------------------------------------------
  free energy    TOTEN  =      -352.59645413 eV

  energy without entropy =     -352.58368733  energy(sigma->0) =     -352.59007073


--------------------------------------------------------------------------------------------------------




--------------------------------------- Iteration      1(   4)  ---------------------------------------


     EDDAV:  cpu time    3.6387: real time    3.6669
       DOS:  cpu time    0.0008: real time    0.0008
    --------------------------------------------
      LOOP:  cpu time    3.6394: real time    3.6676

 eigenvalue-minimisations  :  6280
 total energy-change (2. order) :-0.6305506E+01  (-0.6277631E+01)
 number of electron     145.0000000 magnetization 
 augmentation part      145.0000000 magnetization 

 Free energy of the ion-electron system (eV)
  ---------------------------------------------------
  alpha Z        PSCENC =        81.55114726
  Ewald energy   TEWEN  =     50399.08796271
  -Hartree energ DENC   =    -54396.33484940
  -exchange      EXHF   =         0.00000000
  -V(xc)+E(xc)   XCENC  =       470.31607200
  PAW double counting   =      3914.45628527    -3929.39650609
  entropy T*S    EENTRO =        -0.01133546
  eigenvalues    EBANDS =     -2200.45088469
  atomic energy  EATOM  =      5301.88014825
  Solvation  Ediel_sol  =         0.00000000
  ---------------------------------------------------
  free energy    TOTEN  =      -358.90196015 eV

  energy without entropy =     -358.89062469  energy(sigma->0) =     -358.89629242


--------------------------------------------------------------------------------------------------------




--------------------------------------- Iteration      1(   5)  ---------------------------------------


     EDDAV:  cpu time    4.0039: real time    4.0371
       DOS:  cpu time    0.0008: real time    0.0008
    CHARGE:  cpu time    0.1078: real time    0.1084
    MIXING:  cpu time    0.0008: real time    0.0010
    --------------------------------------------
      LOOP:  cpu time    4.1133: real time    4.1474

 eigenvalue-minimisations  :  7256
 total energy-change (2. order) :-0.1966990E+00  (-0.1964292E+00)
 number of electron     144.9999694 magnetization 
 augmentation part        3.8536789 magnetization 

 Broyden mixing:
  rms(total) = 0.26986E+01    rms(broyden)= 0.26984E+01
  rms(prec ) = 0.28242E+01
  weight for this iteration     100.00

 Free energy of the ion-electron system (eV)
  ---------------------------------------------------
  alpha Z        PSCENC =        81.55114726
  Ewald energy   TEWEN  =     50399.08796271
  -Hartree energ DENC   =    -54396.33484940
  -exchange      EXHF   =         0.00000000
  -V(xc)+E(xc)   XCENC  =       470.31607200
  PAW double counting   =      3914.45628527    -3929.39650609
  entropy T*S    EENTRO =        -0.01125712
  eigenvalues    EBANDS =     -2200.64766200
  atomic energy  EATOM  =      5301.88014825
  Solvation  Ediel_sol  =         0.00000000
  ---------------------------------------------------
  free energy    TOTEN  =      -359.09865913 eV

  energy without entropy =     -359.08740200  energy(sigma->0) =     -359.09303056


--------------------------------------------------------------------------------------------------------




--------------------------------------- Iteration      1(   6)  ---------------------------------------


    POTLOK:  cpu time    0.0212: real time    0.0214
    SETDIJ:  cpu time    0.0019: real time    0.0019
     EDDAV:  cpu time    3.3604: real time    3.3867
       DOS:  cpu time    0.0009: real time    0.0009
    CHARGE:  cpu time    0.1067: real time    0.1073
    MIXING:  cpu time    0.0011: real time    0.0123
    --------------------------------------------
      LOOP:  cpu time    3.4922: real time    3.5305

 eigenvalue-minimisations  :  5904
 total energy-change (2. order) : 0.1995395E+02  (-0.1755662E+01)
 number of electron     144.9999696 magnetization 
 augmentation part        3.6832713 magnetization 

 Broyden mixing:
  rms(total) = 0.15914E+01    rms(broyden)= 0.15913E+01
  rms(prec ) = 0.16724E+01
  weight for this iteration     100.00

 eigenvalues of (default mixing * dielectric matrix)
  average eigenvalue GAMMA=   2.1926
  2.1926

 Free energy of the ion-electron system (eV)
  ---------------------------------------------------
  alpha Z        PSCENC =        81.55114726
  Ewald energy   TEWEN  =     50399.08796271
  -Hartree energ DENC   =    -54729.37004196
  -exchange      EXHF   =         0.00000000
  -V(xc)+E(xc)   XCENC  =       479.74342023
  PAW double counting   =      7296.79047897    -7314.36395762
  entropy T*S    EENTRO =        -0.01134430
  eigenvalues    EBANDS =     -1854.45252514
  atomic energy  EATOM  =      5301.88014825
  Solvation  Ediel_sol  =         0.00000000
  ---------------------------------------------------
  free energy    TOTEN  =      -339.14471160 eV

  energy without entropy =     -339.13336730  energy(sigma->0) =     -339.13903945


--------------------------------------------------------------------------------------------------------




--------------------------------------- Iteration      1(   7)  ---------------------------------------


    POTLOK:  cpu time    0.0209: real time    0.0210
    SETDIJ:  cpu time    0.0019: real time    0.0019
     EDDAV:  cpu time    3.4102: real time    3.4353
       DOS:  cpu time    0.0009: real time    0.0009
    CHARGE:  cpu time    0.1099: real time    0.1105
    MIXING:  cpu time    0.0007: real time    0.0007
    --------------------------------------------
      LOOP:  cpu time    3.5445: real time    3.5704

 eigenvalue-minimisations  :  5864
 total energy-change (2. order) : 0.2866789E+01  (-0.4120971E+01)
 number of electron     144.9999685 magnetization 
 augmentation part        3.2842348 magnetization 

 Broyden mixing:
  rms(total) = 0.64264E+00    rms(broyden)= 0.64114E+00
  rms(prec ) = 0.11234E+01
  weight for this iteration     100.00

 eigenvalues of (default mixing * dielectric matrix)
  average eigenvalue GAMMA=   1.6017
  1.1269  2.0766

 Free energy of the ion-electron system (eV)
  ---------------------------------------------------
  alpha Z        PSCENC =        81.55114726
  Ewald energy   TEWEN  =     50399.08796271
  -Hartree energ DENC   =    -55250.98660784
  -exchange      EXHF   =         0.00000000
  -V(xc)+E(xc)   XCENC  =       492.04236333
  PAW double counting   =     13921.33057647   -13941.22138892
  entropy T*S    EENTRO =        -0.03485188
  eigenvalues    EBANDS =     -1339.92727232
  atomic energy  EATOM  =      5301.88014825
  Solvation  Ediel_sol  =         0.00000000
  ---------------------------------------------------
  free energy    TOTEN  =      -336.27792296 eV

  energy without entropy =     -336.24307107  energy(sigma->0) =     -336.26049701


--------------------------------------------------------------------------------------------------------




--------------------------------------- Iteration      1(   8)  ---------------------------------------


    POTLOK:  cpu time    0.0214: real time    0.0216
    SETDIJ:  cpu time    0.0018: real time    0.0019
     EDDAV:  cpu time    3.2683: real time    3.2928
       DOS:  cpu time    0.0010: real time    0.0010
    CHARGE:  cpu time    0.1099: real time    0.1105
    MIXING:  cpu time    0.0007: real time    0.0007
    --------------------------------------------
      LOOP:  cpu time    3.4031: real time    3.4284

 eigenvalue-minimisations  :  5664
 total energy-change (2. order) : 0.3085931E+01  (-0.3243502E+00)
 number of electron     144.9999693 magnetization 
 augmentation part        3.3629153 magnetization 

 Broyden mixing:
  rms(total) = 0.44312E+00    rms(broyden)= 0.44311E+00
  rms(prec ) = 0.59041E+00
  weight for this iteration     100.00

 eigenvalues of (default mixing * dielectric matrix)
  average eigenvalue GAMMA=   1.6238
  2.4348  1.9720  0.4646

 Free energy of the ion-electron system (eV)
  ---------------------------------------------------
  alpha Z        PSCENC =        81.55114726
  Ewald energy   TEWEN  =     50399.08796271
  -Hartree energ DENC   =    -55116.41924433
  -exchange      EXHF   =         0.00000000
  -V(xc)+E(xc)   XCENC  =       491.18914984
  PAW double counting   =     13966.68693836   -13986.30193564
  entropy T*S    EENTRO =        -0.01074038
  eigenvalues    EBANDS =     -1470.85541835
  atomic energy  EATOM  =      5301.88014825
  Solvation  Ediel_sol  =         0.00000000
  ---------------------------------------------------
  free energy    TOTEN  =      -333.19199228 eV

  energy without entropy =     -333.18125190  energy(sigma->0) =     -333.18662209


--------------------------------------------------------------------------------------------------------




--------------------------------------- Iteration      1(   9)  ---------------------------------------


    POTLOK:  cpu time    0.0221: real time    0.0223
    SETDIJ:  cpu time    0.0018: real time    0.0019
     EDDAV:  cpu time    3.2722: real time    3.2968
       DOS:  cpu time    0.0009: real time    0.0009
    CHARGE:  cpu time    0.1084: real time    0.1090
    MIXING:  cpu time    0.0006: real time    0.0006
    --------------------------------------------
      LOOP:  cpu time    3.4061: real time    3.4315

 eigenvalue-minimisations  :  5792
 total energy-change (2. order) :-0.4875249E-01  (-0.8681300E+00)
 number of electron     144.9999702 magnetization 
 augmentation part        3.4910396 magnetization 

 Broyden mixing:
  rms(total) = 0.17273E+00    rms(broyden)= 0.17194E+00
  rms(prec ) = 0.38230E+00
  weight for this iteration     100.00

 eigenvalues of (default mixing * dielectric matrix)
  average eigenvalue GAMMA=   1.3809
  2.3807  1.9769  0.5831  0.5831

 Free energy of the ion-electron system (eV)
  ---------------------------------------------------
  alpha Z        PSCENC =        81.55114726
  Ewald energy   TEWEN  =     50399.08796271
  -Hartree energ DENC   =    -54943.39529072
  -exchange      EXHF   =         0.00000000
  -V(xc)+E(xc)   XCENC  =       490.34778189
  PAW double counting   =     15431.79832373   -15450.54852163
  entropy T*S    EENTRO =        -0.01172775
  eigenvalues    EBANDS =     -1643.95056850
  atomic energy  EATOM  =      5301.88014825
  Solvation  Ediel_sol  =         0.00000000
  ---------------------------------------------------
  free energy    TOTEN  =      -333.24074477 eV

  energy without entropy =     -333.22901702  energy(sigma->0) =     -333.23488089


--------------------------------------------------------------------------------------------------------




--------------------------------------- Iteration      1(  10)  ---------------------------------------


    POTLOK:  cpu time    0.0220: real time    0.0222
    SETDIJ:  cpu time    0.0018: real time    0.0018
     EDDAV:  cpu time    3.1190: real time    3.1411
       DOS:  cpu time    0.0010: real time    0.0010
    CHARGE:  cpu time    0.1108: real time    0.1114
    MIXING:  cpu time    0.0006: real time    0.0006
    --------------------------------------------
      LOOP:  cpu time    3.2552: real time    3.2780

 eigenvalue-minimisations  :  5520
 total energy-change (2. order) : 0.6356055E+00  (-0.5162991E-01)
 number of electron     144.9999700 magnetization 
 augmentation part        3.4625748 magnetization 

 Broyden mixing:
  rms(total) = 0.92772E-01    rms(broyden)= 0.92770E-01
  rms(prec ) = 0.20248E+00
  weight for this iteration     100.00

 eigenvalues of (default mixing * dielectric matrix)
  average eigenvalue GAMMA=   1.3097
  2.3154  2.0199  0.8468  0.8468  0.5196

 Free energy of the ion-electron system (eV)
  ---------------------------------------------------
  alpha Z        PSCENC =        81.55114726
  Ewald energy   TEWEN  =     50399.08796271
  -Hartree energ DENC   =    -54993.03564512
  -exchange      EXHF   =         0.00000000
  -V(xc)+E(xc)   XCENC  =       490.58656749
  PAW double counting   =     15453.78192988   -15472.55813383
  entropy T*S    EENTRO =        -0.02797447
  eigenvalues    EBANDS =     -1593.87114144
  atomic energy  EATOM  =      5301.88014825
  Solvation  Ediel_sol  =         0.00000000
  ---------------------------------------------------
  free energy    TOTEN  =      -332.60513928 eV

  energy without entropy =     -332.57716481  energy(sigma->0) =     -332.59115205


--------------------------------------------------------------------------------------------------------




--------------------------------------- Iteration      1(  11)  ---------------------------------------


    POTLOK:  cpu time    0.0221: real time    0.0238
    SETDIJ:  cpu time    0.0018: real time    0.0019
     EDDAV:  cpu time    3.3499: real time    3.3749
       DOS:  cpu time    0.0009: real time    0.0009
    CHARGE:  cpu time    0.1132: real time    0.1138
    MIXING:  cpu time    0.0008: real time    0.0008
    --------------------------------------------
      LOOP:  cpu time    3.4888: real time    3.5160

 eigenvalue-minimisations  :  5792
 total energy-change (2. order) : 0.1392490E+00  (-0.1134232E-01)
 number of electron     144.9999697 magnetization 
 augmentation part        3.4291656 magnetization 

 Broyden mixing:
  rms(total) = 0.16819E-01    rms(broyden)= 0.16301E-01
  rms(prec ) = 0.28668E-01
  weight for this iteration     100.00

 eigenvalues of (default mixing * dielectric matrix)
  average eigenvalue GAMMA=   1.4487
  2.2334  2.2334  1.5606  1.0601  1.0601  0.5447

 Free energy of the ion-electron system (eV)
  ---------------------------------------------------
  alpha Z        PSCENC =        81.55114726
  Ewald energy   TEWEN  =     50399.08796271
  -Hartree energ DENC   =    -55039.36525252
  -exchange      EXHF   =         0.00000000
  -V(xc)+E(xc)   XCENC  =       490.82958066
  PAW double counting   =     15401.98265473   -15420.78260538
  entropy T*S    EENTRO =        -0.03329711
  eigenvalues    EBANDS =     -1547.61622885
  atomic energy  EATOM  =      5301.88014825
  Solvation  Ediel_sol  =         0.00000000
  ---------------------------------------------------
  free energy    TOTEN  =      -332.46589026 eV

  energy without entropy =     -332.43259315  energy(sigma->0) =     -332.44924170


--------------------------------------------------------------------------------------------------------




--------------------------------------- Iteration      1(  12)  ---------------------------------------


    POTLOK:  cpu time    0.0222: real time    0.0224
    SETDIJ:  cpu time    0.0019: real time    0.0019
     EDDAV:  cpu time    3.2093: real time    3.2330
       DOS:  cpu time    0.0009: real time    0.0009
    CHARGE:  cpu time    0.1119: real time    0.1126
    MIXING:  cpu time    0.0008: real time    0.0008
    --------------------------------------------
      LOOP:  cpu time    3.3470: real time    3.3715

 eigenvalue-minimisations  :  5840
 total energy-change (2. order) : 0.1815514E-02  (-0.8503996E-03)
 number of electron     144.9999697 magnetization 
 augmentation part        3.4266563 magnetization 

 Broyden mixing:
  rms(total) = 0.11664E-01    rms(broyden)= 0.11596E-01
  rms(prec ) = 0.24345E-01
  weight for this iteration     100.00

 eigenvalues of (default mixing * dielectric matrix)
  average eigenvalue GAMMA=   1.6247
  3.2743  2.5371  1.8284  0.5429  1.2596  0.9652  0.9652

 Free energy of the ion-electron system (eV)
  ---------------------------------------------------
  alpha Z        PSCENC =        81.55114726
  Ewald energy   TEWEN  =     50399.08796271
  -Hartree energ DENC   =    -55051.89267312
  -exchange      EXHF   =         0.00000000
  -V(xc)+E(xc)   XCENC  =       491.01645092
  PAW double counting   =     15397.17173631   -15415.95435260
  entropy T*S    EENTRO =        -0.03249165
  eigenvalues    EBANDS =     -1535.29200283
  atomic energy  EATOM  =      5301.88014825
  Solvation  Ediel_sol  =         0.00000000
  ---------------------------------------------------
  free energy    TOTEN  =      -332.46407475 eV

  energy without entropy =     -332.43158310  energy(sigma->0) =     -332.44782892


--------------------------------------------------------------------------------------------------------




--------------------------------------- Iteration      1(  13)  ---------------------------------------


    POTLOK:  cpu time    0.0222: real time    0.0224
    SETDIJ:  cpu time    0.0018: real time    0.0019
     EDDAV:  cpu time    3.2795: real time    3.3033
       DOS:  cpu time    0.0009: real time    0.0009
    CHARGE:  cpu time    0.1181: real time    0.1191
    MIXING:  cpu time    0.0009: real time    0.0009
    --------------------------------------------
      LOOP:  cpu time    3.4235: real time    3.4485

 eigenvalue-minimisations  :  5688
 total energy-change (2. order) :-0.1064488E-02  (-0.2845716E-03)
 number of electron     144.9999697 magnetization 
 augmentation part        3.4259413 magnetization 

 Broyden mixing:
  rms(total) = 0.10173E-01    rms(broyden)= 0.10157E-01
  rms(prec ) = 0.21056E-01
  weight for this iteration     100.00

 eigenvalues of (default mixing * dielectric matrix)
  average eigenvalue GAMMA=   1.7054
  3.6303  2.3322  2.3322  1.7935  0.5431  0.9757  0.9757  1.0605

 Free energy of the ion-electron system (eV)
  ---------------------------------------------------
  alpha Z        PSCENC =        81.55114726
  Ewald energy   TEWEN  =     50399.08796271
  -Hartree energ DENC   =    -55059.21800765
  -exchange      EXHF   =         0.00000000
  -V(xc)+E(xc)   XCENC  =       491.10842409
  PAW double counting   =     15367.85648612   -15386.62397810
  entropy T*S    EENTRO =        -0.03230673
  eigenvalues    EBANDS =     -1528.07501518
  atomic energy  EATOM  =      5301.88014825
  Solvation  Ediel_sol  =         0.00000000
  ---------------------------------------------------
  free energy    TOTEN  =      -332.46513923 eV

  energy without entropy =     -332.43283250  energy(sigma->0) =     -332.44898587


--------------------------------------------------------------------------------------------------------




--------------------------------------- Iteration      1(  14)  ---------------------------------------


    POTLOK:  cpu time    0.0222: real time    0.0223
    SETDIJ:  cpu time    0.0018: real time    0.0019
     EDDAV:  cpu time    3.0654: real time    3.0879
       DOS:  cpu time    0.0009: real time    0.0009
    CHARGE:  cpu time    0.1112: real time    0.1118
    MIXING:  cpu time    0.0008: real time    0.0008
    --------------------------------------------
      LOOP:  cpu time    3.2024: real time    3.2257

 eigenvalue-minimisations  :  5632
 total energy-change (2. order) :-0.3242745E-02  (-0.6955559E-04)
 number of electron     144.9999697 magnetization 
 augmentation part        3.4262282 magnetization 

 Broyden mixing:
  rms(total) = 0.55257E-02    rms(broyden)= 0.55074E-02
  rms(prec ) = 0.12828E-01
  weight for this iteration     100.00

 eigenvalues of (default mixing * dielectric matrix)
  average eigenvalue GAMMA=   1.9647
  5.9846  2.8021  2.4518  1.8539  0.5430  0.9760  0.9760  1.1580  0.9370

 Free energy of the ion-electron system (eV)
  ---------------------------------------------------
  alpha Z        PSCENC =        81.55114726
  Ewald energy   TEWEN  =     50399.08796271
  -Hartree energ DENC   =    -55059.37937188
  -exchange      EXHF   =         0.00000000
  -V(xc)+E(xc)   XCENC  =       491.13325076
  PAW double counting   =     15390.68744689   -15409.45749873
  entropy T*S    EENTRO =        -0.03292188
  eigenvalues    EBANDS =     -1527.93854536
  atomic energy  EATOM  =      5301.88014825
  Solvation  Ediel_sol  =         0.00000000
  ---------------------------------------------------
  free energy    TOTEN  =      -332.46838198 eV

  energy without entropy =     -332.43546010  energy(sigma->0) =     -332.45192104


--------------------------------------------------------------------------------------------------------




--------------------------------------- Iteration      1(  15)  ---------------------------------------


    POTLOK:  cpu time    0.0221: real time    0.0223
    SETDIJ:  cpu time    0.0018: real time    0.0018
     EDDAV:  cpu time    3.0008: real time    3.0239
       DOS:  cpu time    0.0009: real time    0.0009
    CHARGE:  cpu time    0.1181: real time    0.1187
    MIXING:  cpu time    0.0009: real time    0.0009
    --------------------------------------------
      LOOP:  cpu time    3.1447: real time    3.1685

 eigenvalue-minimisations  :  5392
 total energy-change (2. order) :-0.2443295E-02  (-0.5274655E-04)
 number of electron     144.9999697 magnetization 
 augmentation part        3.4276536 magnetization 

 Broyden mixing:
  rms(total) = 0.19852E-02    rms(broyden)= 0.19254E-02
  rms(prec ) = 0.32048E-02
  weight for this iteration     100.00

 eigenvalues of (default mixing * dielectric matrix)
  average eigenvalue GAMMA=   2.1571
  6.9781  3.4663  2.5027  2.2820  1.7352  0.5431  0.9675  0.9675  0.9558  1.1730

 Free energy of the ion-electron system (eV)
  ---------------------------------------------------
  alpha Z        PSCENC =        81.55114726
  Ewald energy   TEWEN  =     50399.08796271
  -Hartree energ DENC   =    -55058.06310308
  -exchange      EXHF   =         0.00000000
  -V(xc)+E(xc)   XCENC  =       491.11823319
  PAW double counting   =     15373.44745227   -15392.21865447
  entropy T*S    EENTRO =        -0.03360778
  eigenvalues    EBANDS =     -1529.24040362
  atomic energy  EATOM  =      5301.88014825
  Solvation  Ediel_sol  =         0.00000000
  ---------------------------------------------------
  free energy    TOTEN  =      -332.47082527 eV

  energy without entropy =     -332.43721749  energy(sigma->0) =     -332.45402138


--------------------------------------------------------------------------------------------------------




--------------------------------------- Iteration      1(  16)  ---------------------------------------


    POTLOK:  cpu time    0.0218: real time    0.0219
    SETDIJ:  cpu time    0.0018: real time    0.0018
     EDDAV:  cpu time    3.1784: real time    3.2030
       DOS:  cpu time    0.0008: real time    0.0008
    CHARGE:  cpu time    0.1143: real time    0.1149
    MIXING:  cpu time    0.0010: real time    0.0010
    --------------------------------------------
      LOOP:  cpu time    3.3181: real time    3.3434

 eigenvalue-minimisations  :  5440
 total energy-change (2. order) :-0.2965673E-02  (-0.2216787E-04)
 number of electron     144.9999697 magnetization 
 augmentation part        3.4283878 magnetization 

 Broyden mixing:
  rms(total) = 0.19905E-02    rms(broyden)= 0.19351E-02
  rms(prec ) = 0.33344E-02
  weight for this iteration     100.00

 eigenvalues of (default mixing * dielectric matrix)
  average eigenvalue GAMMA=   2.1465
  7.3714  3.6627  2.4398  2.4398  1.8295  0.5430  1.4085  0.9737  0.9737  0.9849
  0.9849

 Free energy of the ion-electron system (eV)
  ---------------------------------------------------
  alpha Z        PSCENC =        81.55114726
  Ewald energy   TEWEN  =     50399.08796271
  -Hartree energ DENC   =    -55056.93235679
  -exchange      EXHF   =         0.00000000
  -V(xc)+E(xc)   XCENC  =       491.10639995
  PAW double counting   =     15378.80829376   -15397.57628513
  entropy T*S    EENTRO =        -0.03353296
  eigenvalues    EBANDS =     -1530.36556799
  atomic energy  EATOM  =      5301.88014825
  Solvation  Ediel_sol  =         0.00000000
  ---------------------------------------------------
  free energy    TOTEN  =      -332.47379095 eV

  energy without entropy =     -332.44025799  energy(sigma->0) =     -332.45702447


--------------------------------------------------------------------------------------------------------




--------------------------------------- Iteration      1(  17)  ---------------------------------------


    POTLOK:  cpu time    0.0218: real time    0.0219
    SETDIJ:  cpu time    0.0018: real time    0.0019
     EDDAV:  cpu time    2.6830: real time    2.7031
       DOS:  cpu time    0.0009: real time    0.0009
    CHARGE:  cpu time    0.1138: real time    0.1145
    MIXING:  cpu time    0.0010: real time    0.0010
    --------------------------------------------
      LOOP:  cpu time    2.8223: real time    2.8433

 eigenvalue-minimisations  :  4608
 total energy-change (2. order) :-0.4682890E-03  (-0.3588625E-05)
 number of electron     144.9999697 magnetization 
 augmentation part        3.4280839 magnetization 

 Broyden mixing:
  rms(total) = 0.87170E-03    rms(broyden)= 0.74777E-03
  rms(prec ) = 0.13533E-02
  weight for this iteration     100.00
  WARNING: grid for Broyden might be to small

 eigenvalues of (default mixing * dielectric matrix)
  average eigenvalue GAMMA=   2.2597
  7.9411  4.4555  2.6463  2.4276  2.2319  1.8527  0.5430  0.9733  0.9733  1.0504
  1.0504  0.9705

 Free energy of the ion-electron system (eV)
  ---------------------------------------------------
  alpha Z        PSCENC =        81.55114726
  Ewald energy   TEWEN  =     50399.08796271
  -Hartree energ DENC   =    -55057.36808642
  -exchange      EXHF   =         0.00000000
  -V(xc)+E(xc)   XCENC  =       491.10907068
  PAW double counting   =     15376.30549045   -15395.07535955
  entropy T*S    EENTRO =        -0.03346868
  eigenvalues    EBANDS =     -1529.93116394
  atomic energy  EATOM  =      5301.88014825
  Solvation  Ediel_sol  =         0.00000000
  ---------------------------------------------------
  free energy    TOTEN  =      -332.47425924 eV

  energy without entropy =     -332.44079056  energy(sigma->0) =     -332.45752490


--------------------------------------------------------------------------------------------------------




--------------------------------------- Iteration      1(  18)  ---------------------------------------


    POTLOK:  cpu time    0.0219: real time    0.0220
    SETDIJ:  cpu time    0.0018: real time    0.0018
     EDDAV:  cpu time    2.5956: real time    2.6146
       DOS:  cpu time    0.0009: real time    0.0009
    CHARGE:  cpu time    0.1287: real time    0.1295
    MIXING:  cpu time    0.0171: real time    0.0172
    --------------------------------------------
      LOOP:  cpu time    2.7661: real time    2.7860

 eigenvalue-minimisations  :  4464
 total energy-change (2. order) :-0.2315110E-03  (-0.2087382E-05)
 number of electron     144.9999697 magnetization 
 augmentation part        3.4279153 magnetization 

 Broyden mixing:
  rms(total) = 0.50048E-03    rms(broyden)= 0.22204E-03
  rms(prec ) = 0.29268E-03
  weight for this iteration     100.00
  WARNING: grid for Broyden might be to small

 eigenvalues of (default mixing * dielectric matrix)
  average eigenvalue GAMMA=   2.3148
  8.2326  5.0704  2.9389  2.5089  2.5089  1.8891  0.5430  1.4393  0.9727  0.9727
  1.0400  1.0400  0.9353

 Free energy of the ion-electron system (eV)
  ---------------------------------------------------
  alpha Z        PSCENC =        81.55114726
  Ewald energy   TEWEN  =     50399.08796271
  -Hartree energ DENC   =    -55057.66208797
  -exchange      EXHF   =         0.00000000
  -V(xc)+E(xc)   XCENC  =       491.11018192
  PAW double counting   =     15375.76589954   -15394.53575988
  entropy T*S    EENTRO =        -0.03339191
  eigenvalues    EBANDS =     -1529.63859066
  atomic energy  EATOM  =      5301.88014825
  Solvation  Ediel_sol  =         0.00000000
  ---------------------------------------------------
  free energy    TOTEN  =      -332.47449075 eV

  energy without entropy =     -332.44109884  energy(sigma->0) =     -332.45779479


--------------------------------------------------------------------------------------------------------




--------------------------------------- Iteration      1(  19)  ---------------------------------------


    POTLOK:  cpu time    0.0217: real time    0.0219
    SETDIJ:  cpu time    0.0018: real time    0.0018
     EDDAV:  cpu time    2.2776: real time    2.2947
       DOS:  cpu time    0.0009: real time    0.0009
    CHARGE:  cpu time    0.1189: real time    0.1199
    MIXING:  cpu time    0.0011: real time    0.0011
    --------------------------------------------
      LOOP:  cpu time    2.4221: real time    2.4403

 eigenvalue-minimisations  :  3736
 total energy-change (2. order) :-0.2588873E-04  (-0.3988304E-06)
 number of electron     144.9999697 magnetization 
 augmentation part        3.4279205 magnetization 

 Broyden mixing:
  rms(total) = 0.46782E-03    rms(broyden)= 0.13482E-03
  rms(prec ) = 0.19936E-03
  weight for this iteration     100.00
  WARNING: grid for Broyden might be to small

 eigenvalues of (default mixing * dielectric matrix)
  average eigenvalue GAMMA=   2.2924
  8.4654  5.1676  3.0275  2.6318  2.4188  1.8688  1.8688  0.5430  0.9728  0.9728
  1.1158  1.1158  0.9622  0.9622

 Free energy of the ion-electron system (eV)
  ---------------------------------------------------
  alpha Z        PSCENC =        81.55114726
  Ewald energy   TEWEN  =     50399.08796271
  -Hartree energ DENC   =    -55057.67114436
  -exchange      EXHF   =         0.00000000
  -V(xc)+E(xc)   XCENC  =       491.10963982
  PAW double counting   =     15376.37596457   -15395.14558241
  entropy T*S    EENTRO =        -0.03337182
  eigenvalues    EBANDS =     -1529.62928065
  atomic energy  EATOM  =      5301.88014825
  Solvation  Ediel_sol  =         0.00000000
  ---------------------------------------------------
  free energy    TOTEN  =      -332.47451664 eV

  energy without entropy =     -332.44114482  energy(sigma->0) =     -332.45783073


--------------------------------------------------------------------------------------------------------




--------------------------------------- Iteration      1(  20)  ---------------------------------------


    POTLOK:  cpu time    0.0217: real time    0.0218
    SETDIJ:  cpu time    0.0018: real time    0.0018
     EDDAV:  cpu time    2.3872: real time    2.4048
       DOS:  cpu time    0.0009: real time    0.0009
    CHARGE:  cpu time    0.1198: real time    0.1208
    MIXING:  cpu time    0.0012: real time    0.0013
    --------------------------------------------
      LOOP:  cpu time    2.5327: real time    2.5513

 eigenvalue-minimisations  :  3712
 total energy-change (2. order) :-0.5112899E-05  (-0.1389805E-06)
 number of electron     144.9999697 magnetization 
 augmentation part        3.4279067 magnetization 

 Broyden mixing:
  rms(total) = 0.45227E-03    rms(broyden)= 0.62249E-04
  rms(prec ) = 0.10037E-03
  weight for this iteration     100.00
  WARNING: grid for Broyden might be to small

 eigenvalues of (default mixing * dielectric matrix)
  average eigenvalue GAMMA=   2.3884
  8.5866  5.7002  3.9686  2.6754  2.4550  2.4550  1.9236  0.5430  1.5516  0.9728
  0.9728  1.0408  1.0408  0.9697  0.9697

 Free energy of the ion-electron system (eV)
  ---------------------------------------------------
  alpha Z        PSCENC =        81.55114726
  Ewald energy   TEWEN  =     50399.08796271
  -Hartree energ DENC   =    -55057.70814619
  -exchange      EXHF   =         0.00000000
  -V(xc)+E(xc)   XCENC  =       491.10968475
  PAW double counting   =     15375.94943138   -15394.71925078
  entropy T*S    EENTRO =        -0.03335825
  eigenvalues    EBANDS =     -1529.59214087
  atomic energy  EATOM  =      5301.88014825
  Solvation  Ediel_sol  =         0.00000000
  ---------------------------------------------------
  free energy    TOTEN  =      -332.47452175 eV

  energy without entropy =     -332.44116349  energy(sigma->0) =     -332.45784262


--------------------------------------------------------------------------------------------------------




--------------------------------------- Iteration      1(  21)  ---------------------------------------


    POTLOK:  cpu time    0.0219: real time    0.0220
    SETDIJ:  cpu time    0.0018: real time    0.0019
     EDDAV:  cpu time    2.2496: real time    2.2670
       DOS:  cpu time    0.0009: real time    0.0009
    CHARGE:  cpu time    0.1153: real time    0.1159
    MIXING:  cpu time    0.0015: real time    0.0015
    --------------------------------------------
      LOOP:  cpu time    2.3911: real time    2.4093

 eigenvalue-minimisations  :  3592
 total energy-change (2. order) : 0.1312117E-05  (-0.8701071E-07)
 number of electron     144.9999697 magnetization 
 augmentation part        3.4278987 magnetization 

 Broyden mixing:
  rms(total) = 0.45152E-03    rms(broyden)= 0.56576E-04
  rms(prec ) = 0.71624E-04
  weight for this iteration     100.00
  WARNING: grid for Broyden might be to small

 eigenvalues of (default mixing * dielectric matrix)
  average eigenvalue GAMMA=   2.4148
  8.7007  6.0228  4.4889  2.6495  2.6495  2.2887  1.9376  1.9376  0.5430  1.4166
  0.9730  0.9730  1.0594  1.0594  0.9681  0.9681

 Free energy of the ion-electron system (eV)
  ---------------------------------------------------
  alpha Z        PSCENC =        81.55114726
  Ewald energy   TEWEN  =     50399.08796271
  -Hartree energ DENC   =    -55057.75929497
  -exchange      EXHF   =         0.00000000
  -V(xc)+E(xc)   XCENC  =       491.10995511
  PAW double counting   =     15375.86559876   -15394.63544017
  entropy T*S    EENTRO =        -0.03334487
  eigenvalues    EBANDS =     -1529.54125251
  atomic energy  EATOM  =      5301.88014825
  Solvation  Ediel_sol  =         0.00000000
  ---------------------------------------------------
  free energy    TOTEN  =      -332.47452044 eV

  energy without entropy =     -332.44117556  energy(sigma->0) =     -332.45784800


--------------------------------------------------------------------------------------------------------




--------------------------------------- Iteration      1(  22)  ---------------------------------------


    POTLOK:  cpu time    0.0223: real time    0.0225
    SETDIJ:  cpu time    0.0023: real time    0.0023
     EDDAV:  cpu time    2.5410: real time    2.5596
       DOS:  cpu time    0.0008: real time    0.0008
    --------------------------------------------
      LOOP:  cpu time    2.5664: real time    2.5851

 eigenvalue-minimisations  :  4176
 total energy-change (2. order) : 0.2773031E-06  (-0.2923186E-07)
 number of electron     144.9999697 magnetization 
 augmentation part        3.4278987 magnetization 

 Free energy of the ion-electron system (eV)
  ---------------------------------------------------
  alpha Z        PSCENC =        81.55114726
  Ewald energy   TEWEN  =     50399.08796271
  -Hartree energ DENC   =    -55057.78445107
  -exchange      EXHF   =         0.00000000
  -V(xc)+E(xc)   XCENC  =       491.10989987
  PAW double counting   =     15376.15988735   -15394.92963972
  entropy T*S    EENTRO =        -0.03334171
  eigenvalues    EBANDS =     -1529.51613310
  atomic energy  EATOM  =      5301.88014825
  Solvation  Ediel_sol  =         0.00000000
  ---------------------------------------------------
  free energy    TOTEN  =      -332.47452016 eV

  energy without entropy =     -332.44117845  energy(sigma->0) =     -332.45784931


--------------------------------------------------------------------------------------------------------




 average (electrostatic) potential at core
  the test charge radii are     0.6991  0.9748
  (the norm of the test charge is              1.0000)
       1 -56.9362       2 -56.9362       3 -56.9362       4 -56.9362       5 -56.9363
       6 -56.9362       7 -56.9362       8 -56.9363       9 -56.9363      10 -56.9362
      11 -56.9362      12 -56.9362      13 -56.9362      14 -56.9363      15 -56.9362
      16 -56.9362      17 -56.9363      18 -56.9363      19 -56.9263      20 -56.9263
      21 -56.9263      22 -56.9265      23 -56.9265      24 -56.9263      25 -56.9264
      26 -56.9265      27 -56.9263      28 -56.9264      29 -56.9264      30 -56.9263
      31 -56.9264      32 -56.9265      33 -56.9264      34 -56.9262      35 -56.9264
      36 -56.9264      37 -34.9184



 E-fermi :  -1.2455     XC(G=0):  -3.5023     alpha+bet : -2.8464


 k-point     1 :       0.0000    0.0000    0.0000
  band No.  band energies     occupation 
      1     -21.0276      2.00000
      2     -20.9415      2.00000
      3     -18.4377      2.00000
      4     -18.4377      2.00000
      5     -18.4377      2.00000
      6     -18.4376      2.00000
      7     -18.4376      2.00000
      8     -18.4376      2.00000
      9     -18.3660      2.00000
     10     -18.3660      2.00000
     11     -18.3660      2.00000
     12     -18.3660      2.00000
     13     -18.3659      2.00000
     14     -18.3659      2.00000
     15     -14.0951      2.00000
     16     -14.0951      2.00000
     17     -14.0676      2.00000
     18     -14.0676      2.00000
     19     -14.0676      2.00000
     20     -14.0676      2.00000
     21     -14.0432      2.00000
     22     -14.0432      2.00000
     23     -12.0129      2.00000
     24     -12.0129      2.00000
     25     -12.0128      2.00000
     26     -12.0128      2.00000
     27     -11.1198      2.00000
     28     -11.1198      2.00000
     29     -11.1195      2.00000
     30     -11.1195      2.00000
     31     -11.1195      2.00000
     32     -11.1195      2.00000
     33     -11.0830      2.00000
     34     -11.0830      2.00000
     35     -11.0827      2.00000
     36     -11.0827      2.00000
     37     -11.0827      2.00000
     38     -11.0827      2.00000
     39      -9.4270      2.00000
     40      -8.7498      2.00000
     41      -7.2525      2.00000
     42      -7.2525      2.00000
     43      -7.2524      2.00000
     44      -7.2524      2.00000
     45      -7.2519      2.00000
     46      -7.2519      2.00000
     47      -7.2400      2.00000
     48      -7.2400      2.00000
     49      -7.2400      2.00000
     50      -7.2400      2.00000
     51      -7.2395      2.00000
     52      -7.2394      2.00000
     53      -6.3904      2.00000
     54      -6.3903      2.00000
     55      -6.3903      2.00000
     56      -6.3903      2.00000
     57      -6.3903      2.00000
     58      -6.3903      2.00000
     59      -5.8116      2.00000
     60      -5.8116      2.00000
     61      -5.8116      2.00000
     62      -5.8116      2.00000
     63      -5.8115      2.00000
     64      -5.8115      2.00000
     65      -4.5053      2.00000
     66      -4.5045      2.00000
     67      -4.5027      2.00000
     68      -4.5018      2.00000
     69      -1.7043      2.00000
     70      -1.7043      2.00000
     71      -1.4869      1.99936
     72      -1.4869      1.99936
     73      -1.4869      1.99936
     74      -1.4869      1.99936
     75      -1.4609      1.99769
     76      -1.2631      1.19656
     77      -1.2631      1.19655
     78       0.4237      0.00000
     79       1.0808      0.00000
     80       1.0808      0.00000
     81       1.6280      0.00000
     82       1.9283      0.00000
     83       1.9952      0.00000
     84       2.5443      0.00000
     85       2.5981      0.00000
     86       3.2734      0.00000
     87       3.2734      0.00000
     88       3.2734      0.00000
     89       3.2735      0.00000
     90       3.2735      0.00000
     91       3.2738      0.00000
     92       3.4017      0.00000
     93       3.4018      0.00000
     94       3.5484      0.00000
     95       3.5754      0.00000
     96       3.5755      0.00000

 k-point     2 :       0.0667    0.0000    0.0000
  band No.  band energies     occupation 
      1     -21.0159      2.00000
      2     -20.9298      2.00000
      3     -18.7658      2.00000
      4     -18.6923      2.00000
      5     -18.5958      2.00000
      6     -18.5958      2.00000
      7     -18.5233      2.00000
      8     -18.5233      2.00000
      9     -18.2576      2.00000
     10     -18.2576      2.00000
     11     -18.1870      2.00000
     12     -18.1869      2.00000
     13     -18.0894      2.00000
     14     -18.0197      2.00000
     15     -14.3688      2.00000
     16     -14.3688      2.00000
     17     -14.3348      2.00000
     18     -14.3347      2.00000
     19     -13.8500      2.00000
     20     -13.8500      2.00000
     21     -13.8285      2.00000
     22     -13.8284      2.00000
     23     -11.9407      2.00000
     24     -11.9406      2.00000
     25     -11.9303      2.00000
     26     -11.9302      2.00000
     27     -11.6975      2.00000
     28     -11.6583      2.00000
     29     -11.4054      2.00000
     30     -11.4052      2.00000
     31     -11.3675      2.00000
     32     -11.3672      2.00000
     33     -10.8241      2.00000
     34     -10.8238      2.00000
     35     -10.7886      2.00000
[...]
     68      -3.8025      2.00000
     69      -3.6130      2.00000
     70      -3.5776      2.00000
     71      -3.5244      2.00000
     72      -3.3663      2.00000
     73      -1.1251      0.08863
     74       0.0095      0.00000
     75       0.0671      0.00000
     76       0.1044      0.00000
     77       0.1982      0.00000
     78       0.2630      0.00000
     79       0.2992      0.00000
     80       0.3342      0.00000
     81       0.4576      0.00000
     82       0.7594      0.00000
     83       1.8945      0.00000
     84       2.0848      0.00000
     85       2.3324      0.00000
     86       2.3520      0.00000
     87       2.5244      0.00000
     88       2.5930      0.00000
     89       2.6245      0.00000
     90       2.8057      0.00000
     91       2.9157      0.00000
     92       2.9731      0.00000
     93       2.9737      0.00000
     94       3.0955      0.00000
     95       3.2010      0.00000
     96       3.2288      0.00000

 k-point    27 :       0.3333    0.3333    0.0000
  band No.  band energies     occupation 
      1     -20.1543      2.00000
      2     -20.1542      2.00000
      3     -20.1542      2.00000
      4     -20.0731      2.00000
      5     -20.0730      2.00000
      6     -20.0730      2.00000
      7     -17.6023      2.00000
      8     -17.6022      2.00000
      9     -17.6022      2.00000
     10     -17.5354      2.00000
     11     -17.5353      2.00000
     12     -17.5353      2.00000
     13     -15.5781      2.00000
     14     -15.5780      2.00000
     15     -15.5780      2.00000
     16     -15.5475      2.00000
     17     -15.5475      2.00000
     18     -15.5475      2.00000
     19     -14.5283      2.00000
     20     -14.5282      2.00000
     21     -14.5282      2.00000
     22     -14.5054      2.00000
     23     -14.5052      2.00000
     24     -14.5052      2.00000
     25     -11.1573      2.00000
     26     -11.1573      2.00000
     27     -11.1572      2.00000
     28     -11.1384      2.00000
     29     -11.1384      2.00000
     30     -11.1383      2.00000
     31      -9.6161      2.00000
     32      -9.6159      2.00000
     33      -9.6159      2.00000
     34      -9.6019      2.00000
     35      -9.6017      2.00000
     36      -9.6017      2.00000
     37      -8.7889      2.00000
     38      -8.7889      2.00000
     39      -8.7885      2.00000
     40      -8.7687      2.00000
     41      -8.7687      2.00000
     42      -8.7682      2.00000
     43      -8.3814      2.00000
     44      -8.3814      2.00000
     45      -8.3814      2.00000
     46      -7.7303      2.00000
     47      -7.7303      2.00000
     48      -7.7302      2.00000
     49      -7.1861      2.00000
     50      -7.1861      2.00000
     51      -7.1858      2.00000
     52      -7.1756      2.00000
     53      -7.1756      2.00000
     54      -7.1752      2.00000
     55      -6.2222      2.00000
     56      -6.2218      2.00000
     57      -6.2218      2.00000
     58      -6.2158      2.00000
     59      -6.2154      2.00000
     60      -6.2154      2.00000
     61      -5.4229      2.00000
     62      -5.4229      2.00000
     63      -5.4229      2.00000
     64      -4.8787      2.00000
     65      -4.8787      2.00000
     66      -4.8787      2.00000
     67      -3.7040      2.00000
     68      -3.7040      2.00000
     69      -3.7040      2.00000
     70      -3.4690      2.00000
     71      -3.4690      2.00000
     72      -3.4690      2.00000
     73      -1.1162      0.06761
     74       0.0238      0.00000
     75       0.0238      0.00000
     76       0.0238      0.00000
     77       0.2300      0.00000
     78       0.2300      0.00000
     79       0.2300      0.00000
     80       0.3421      0.00000
     81       0.3427      0.00000
     82       0.7678      0.00000
     83       2.3660      0.00000
     84       2.3660      0.00000
     85       2.3660      0.00000
     86       2.4695      0.00000
     87       2.4698      0.00000
     88       2.5493      0.00000
     89       2.5496      0.00000
     90       2.7886      0.00000
     91       2.8107      0.00000
     92       2.8109      0.00000
     93       3.0552      0.00000
     94       3.0562      0.00000
     95       3.0914      0.00000
     96       3.1397      0.00000


--------------------------------------------------------------------------------------------------------


 soft charge-density along one line, spin component           1
         0         1         2         3         4         5         6         7         8         9
 total charge-density along one line

 pseudopotential strength for first ion, spin component:           1
 10.140  13.483  -0.000  -0.000   0.000   0.000   0.000  -0.000
 13.483  17.927  -0.000  -0.000   0.000   0.000   0.000  -0.000
 -0.000  -0.000  -4.282  -0.000   0.000   8.375   0.000  -0.000
 -0.000  -0.000  -0.000  -4.274  -0.000   0.000   8.366   0.000
  0.000   0.000   0.000  -0.000  -4.282  -0.000   0.000   8.375
  0.000   0.000   8.375   0.000  -0.000 -18.516  -0.000   0.000
  0.000   0.000   0.000   8.366   0.000  -0.000 -18.508  -0.000
 -0.000  -0.000  -0.000   0.000   8.375   0.000  -0.000 -18.516
 total augmentation occupancy for first ion, spin component:           1
  8.231  -3.666   0.000  -0.001  -0.000   0.000  -0.000  -0.000
 -3.666   1.689  -0.000   0.001   0.000  -0.000   0.000   0.000
  0.000  -0.000   1.828   0.000  -0.000   0.172   0.000  -0.000
 -0.001   0.001   0.000   1.208  -0.000   0.000   0.077  -0.000
 -0.000   0.000  -0.000  -0.000   1.828  -0.000  -0.000   0.172
  0.000  -0.000   0.172   0.000  -0.000   0.018   0.000  -0.000
 -0.000   0.000   0.000   0.077  -0.000   0.000   0.005  -0.000
 -0.000   0.000  -0.000  -0.000   0.172  -0.000  -0.000   0.018


------------------------ aborting loop because EDIFF is reached ----------------------------------------


    CHARGE:  cpu time    0.1158: real time    0.1165
    FORLOC:  cpu time    0.0032: real time    0.0032
    FORNL :  cpu time    0.4153: real time    0.4183
    STRESS:  cpu time    1.2622: real time    1.2706
    FORCOR:  cpu time    0.0249: real time    0.0251
    FORHAR:  cpu time    0.0075: real time    0.0076
    MIXING:  cpu time    0.0013: real time    0.0013
    OFIELD:  cpu time    0.0000: real time    0.0000

 ---------------------------------------------------------------------------------------------

         DFTD3 V3.0 Rev 1        
 IVDW         = 11
 DF pbe       
 parameters
 VDW_S6       =    1.0000
 VDW_S8       =    0.7220
 VDW_SR       =    1.2170
 rs18     =    1.0000
 alpha6   =   14.0000
 alpha8   =   16.0000
 k1-k3    =   16.0000    1.3333   -4.0000
 VDW_RADIUS   =   50.2022 A
 VDW_CNRADIUS =   21.1671 A
 Edisp (eV)   -2.12748

 E6    (eV) :    -1.3177
 E8    (eV) :    -0.8098
 % E8        : 38.06
    FORVDW:  cpu time    0.1022: real time    0.1063

  FORCE on cell =-STRESS in cart. coord.  units (eV):
  Direction    XX          YY          ZZ          XY          YZ          ZX
  --------------------------------------------------------------------------------------
  Alpha Z    81.55115    81.55115    81.55115
  Ewald   55238.68307 55238.68342-60078.28937     0.00022    -0.00000     0.00000
  Hartree 54853.71786 54853.71785-54649.78214    -0.00001    -0.00000    -0.00000
  E(xc)    -535.99520  -535.99501  -555.55988     0.00018     0.00003     0.00002
  Local  ************************112852.00616    -0.00162    -0.00134    -0.00077
  n-local  -125.73385  -126.25266  -115.16984     0.82000     0.00439    -0.00498
  augment   -13.87743   -13.87629   -12.79257     0.00099     0.00010     0.00006
  Kinetic  2162.69124  2159.91681  2474.72985    -1.17466    -0.05566     0.10817
  Fock        0.00000     0.00000     0.00000     0.00000     0.00000     0.00000
  vdW        -0.57716    -0.57716    -2.02005     0.00000     0.00000    -0.00000
  -------------------------------------------------------------------------------------
  Total      -3.82387    -3.82387    -5.32670     0.00000    -0.00000    -0.00000
  in kB      -4.64416    -4.64416    -6.46937     0.00000    -0.00000    -0.00000
  external pressure =       -5.25 kB  Pullay stress =        0.00 kB


 VOLUME and BASIS-vectors are now :
 -----------------------------------------------------------------------------
  energy-cutoff  :      400.00
  volume of cell :     1319.19
      direct lattice vectors                 reciprocal lattice vectors
     7.401874065  0.000000000  0.000000000     0.135100921  0.078000577 -0.000000000
    -3.700937886  6.410210483  0.000000000     0.000000000  0.156001118  0.000000000
     0.000000000  0.000000000 27.803073883     0.000000000 -0.000000000  0.035967246

  length of vectors
     7.401874065  7.401874065 27.803073883     0.156001118  0.156001118  0.035967246


 FORCES acting on ions
    electron-ion (+dipol)            ewald-force                    non-local-force                 convergence-correction
 -----------------------------------------------------------------------------------------------
   0.177E-03 -.185E-03 0.406E+03   -.993E-06 -.332E-04 -.406E+03   -.548E-04 0.317E-04 -.412E-01   0.123E-05 -.713E-06 0.464E-03
   0.117E-03 -.825E-04 0.406E+03   0.670E-04 -.543E-04 -.406E+03   0.843E-11 -.633E-04 -.412E-01   -.145E-09 0.142E-05 0.464E-03
   0.137E-03 -.165E-03 0.406E+03   0.212E-03 0.121E-03 -.406E+03   -.103E-03 -.597E-04 -.413E-01   0.218E-04 0.126E-04 0.463E-03
   0.978E-04 -.162E-03 0.406E+03   -.842E-05 -.190E-03 -.406E+03   -.159E-10 0.119E-03 -.413E-01   -.103E-08 -.252E-04 0.463E-03
   0.183E-03 -.112E-03 0.406E+03   -.108E-03 -.161E-03 -.406E+03   0.761E-04 0.439E-04 -.414E-01   -.203E-04 -.117E-04 0.460E-03
   0.974E-04 -.165E-03 0.406E+03   -.724E-04 0.862E-04 -.406E+03   0.103E-03 -.597E-04 -.413E-01   -.218E-04 0.126E-04 0.463E-03
   0.182E-04 -.185E-03 0.406E+03   -.819E-06 -.224E-04 -.406E+03   0.548E-04 0.317E-04 -.412E-01   -.123E-05 -.713E-06 0.464E-03
   0.110E-04 -.113E-03 0.406E+03   0.187E-03 -.120E-03 -.406E+03   -.761E-04 0.439E-04 -.414E-01   0.203E-04 -.117E-04 0.460E-03
   0.964E-04 -.263E-03 0.406E+03   0.551E-04 0.189E-03 -.406E+03   0.117E-10 -.878E-04 -.414E-01   -.761E-11 0.235E-04 0.460E-03
   -.184E-03 0.234E-03 -.406E+03   -.219E-04 0.845E-04 0.406E+03   0.920E-04 -.531E-04 0.412E-01   -.401E-05 0.232E-05 -.462E-03
   -.797E-04 0.564E-04 -.406E+03   -.172E-04 -.210E-04 0.406E+03   -.142E-10 0.106E-03 0.412E-01   0.373E-09 -.463E-05 -.462E-03
   -.813E-04 0.151E-03 -.406E+03   0.115E-03 0.794E-04 0.406E+03   -.577E-04 -.333E-04 0.413E-01   0.409E-05 0.236E-05 -.461E-03
   -.101E-03 0.189E-03 -.406E+03   0.846E-05 -.908E-04 0.406E+03   -.887E-11 0.666E-04 0.413E-01   0.960E-09 -.472E-05 -.461E-03
   -.498E-04 0.193E-03 -.406E+03   -.193E-03 -.856E-04 0.406E+03   0.717E-04 0.414E-04 0.414E-01   -.673E-05 -.389E-05 -.458E-03
   -.780E-04 0.150E-03 -.406E+03   -.156E-03 0.115E-03 0.406E+03   0.577E-04 -.333E-04 0.413E-01   -.409E-05 0.236E-05 -.461E-03
   -.172E-04 0.235E-03 -.406E+03   -.168E-04 0.443E-04 0.406E+03   -.920E-04 -.531E-04 0.412E-01   0.401E-05 0.232E-05 -.462E-03
   -.150E-03 0.194E-03 -.406E+03   0.834E-04 -.114E-03 0.406E+03   -.717E-04 0.414E-04 0.414E-01   0.673E-05 -.389E-05 -.458E-03
   -.100E-03 0.106E-03 -.406E+03   -.449E-04 0.174E-03 0.406E+03   0.110E-10 -.828E-04 0.414E-01   0.479E-11 0.777E-05 -.458E-03
   -.261E-03 0.468E-04 0.406E+03   -.133E-03 -.725E-05 -.406E+03   0.104E-03 0.600E-04 -.411E-01   -.822E-05 -.475E-05 0.464E-03
   -.141E-03 -.464E-04 0.406E+03   -.344E-04 0.146E-03 -.406E+03   -.679E-11 0.510E-04 -.410E-01   -.305E-09 0.762E-05 0.464E-03
   -.292E-03 0.127E-03 0.406E+03   0.186E-04 -.917E-04 -.406E+03   0.442E-04 -.255E-04 -.410E-01   0.660E-05 -.381E-05 0.464E-03
   -.182E-03 0.193E-03 0.406E+03   -.910E-04 -.117E-03 -.406E+03   -.136E-10 0.102E-03 -.413E-01   -.387E-09 -.168E-04 0.460E-03
   -.946E-04 0.113E-03 0.406E+03   -.209E-03 0.185E-03 -.406E+03   0.884E-04 -.510E-04 -.413E-01   -.146E-04 0.841E-05 0.460E-03
   0.397E-04 0.128E-03 0.406E+03   -.411E-04 -.111E-03 -.406E+03   -.442E-04 -.255E-04 -.410E-01   -.660E-05 -.381E-05 0.464E-03
   -.214E-04 0.475E-04 0.406E+03   0.693E-04 -.317E-04 -.406E+03   -.104E-03 0.600E-04 -.411E-01   0.822E-05 -.475E-05 0.464E-03
   -.228E-03 0.113E-03 0.406E+03   0.690E-04 0.180E-03 -.406E+03   -.884E-04 -.510E-04 -.413E-01   0.146E-04 0.841E-05 0.460E-03
   -.101E-03 0.185E-03 0.406E+03   0.201E-04 0.325E-04 -.406E+03   0.160E-10 -.120E-03 -.411E-01   0.634E-09 0.949E-05 0.464E-03
   0.167E-03 -.785E-04 -.406E+03   -.718E-04 -.117E-03 0.406E+03   0.257E-04 0.103E-03 0.412E-01   -.338E-05 -.186E-04 -.460E-03
   0.165E-03 -.746E-04 -.406E+03   -.132E-03 -.540E-04 0.406E+03   0.102E-03 -.293E-04 0.412E-01   -.178E-04 0.635E-05 -.460E-03
   0.179E-03 -.920E-04 -.406E+03   0.644E-04 -.407E-04 0.406E+03   0.635E-17 0.764E-18 0.410E-01   0.720E-09 0.107E-08 -.462E-03
   0.687E-04 -.781E-04 -.406E+03   0.759E-04 -.136E-03 0.406E+03   -.257E-04 0.103E-03 0.412E-01   0.338E-05 -.186E-04 -.460E-03
   0.138E-03 -.115E-03 -.406E+03   0.133E-04 -.679E-04 0.406E+03   -.108E-16 -.662E-18 0.413E-01   0.915E-10 -.274E-08 -.455E-03
   0.961E-04 -.124E-03 -.406E+03   -.101E-03 0.925E-04 0.406E+03   0.764E-04 -.738E-04 0.412E-01   -.144E-04 0.122E-04 -.460E-03
   0.137E-03 -.699E-04 -.406E+03   0.444E-04 0.466E-04 0.406E+03   0.132E-16 -.124E-17 0.410E-01   -.261E-09 0.175E-08 -.463E-03
   0.152E-03 -.748E-04 -.406E+03   0.233E-03 -.380E-04 0.406E+03   -.102E-03 -.293E-04 0.412E-01   0.178E-04 0.635E-05 -.460E-03
   0.181E-03 -.125E-03 -.406E+03   0.116E-03 0.128E-03 0.406E+03   -.764E-04 -.738E-04 0.412E-01   0.144E-04 0.122E-04 -.460E-03
   0.137E-06 0.507E-06 0.308E-04   -.146E-09 0.223E-10 -.797E-05   0.576E-21 0.586E-21 0.101E-04   0.260E-10 0.395E-10 -.295E-07
 -----------------------------------------------------------------------------------------------
   0.965E-04 0.152E-03 0.501E-04   -.225E-14 0.305E-13 -.613E-12   -.204E-16 -.248E-16 0.146E-03   -.133E-09 -.279E-10 0.375E-04


 POSITION                                       TOTAL-FORCE (eV/Angst)
 -----------------------------------------------------------------------------------
      0.00000      0.00000     12.10455         0.000008     -0.000005      0.006843
      6.16823      2.13674     12.10455        -0.000000      0.000009      0.006843
      4.93458      4.27347     12.10455         0.000083      0.000048      0.006750
      2.46729      0.00000     12.10455         0.000000     -0.000096      0.006750
      1.23365      2.13674     12.10455        -0.000027     -0.000015      0.006548
     -0.00000      4.27347     12.10455        -0.000083      0.000048      0.006750
      4.93458      0.00000     12.10455        -0.000008     -0.000005      0.006843
      3.70094      2.13674     12.10455         0.000027     -0.000015      0.006548
      2.46729      4.27347     12.10455        -0.000000      0.000031      0.006548
      0.00000      0.00000     15.69852        -0.000031      0.000018     -0.006853
      6.16823      2.13674     15.69852         0.000000     -0.000036     -0.006853
      4.93458      4.27347     15.69852         0.000057      0.000033     -0.006762
      2.46729      0.00000     15.69852         0.000000     -0.000065     -0.006762
      1.23365      2.13674     15.69852        -0.000033     -0.000019     -0.006560
     -0.00000      4.27347     15.69852        -0.000057      0.000033     -0.006762
      4.93458      0.00000     15.69852         0.000031      0.000018     -0.006853
      3.70094      2.13674     15.69852         0.000033     -0.000019     -0.006560
      2.46729      4.27347     15.69852        -0.000000      0.000038     -0.006560
     -0.00000      1.42449     12.10442        -0.000070     -0.000040      0.001269
     -1.23365      3.56123     12.10442        -0.000000      0.000005      0.001430
     -2.46729      5.69797     12.10442         0.000004     -0.000002      0.001430
      2.46729      1.42449     12.10442         0.000000     -0.000030      0.001069
      1.23365      3.56123     12.10442        -0.000026      0.000015      0.001069
     -0.00000      5.69797     12.10442        -0.000004     -0.000002      0.001430
      4.93458      1.42449     12.10442         0.000070     -0.000040      0.001269
      3.70094      3.56123     12.10442         0.000026      0.000015      0.001069
      2.46729      5.69797     12.10442        -0.000000      0.000080      0.001269
      1.23365      0.71225     15.69866        -0.000021     -0.000055     -0.001205
     -0.00000      2.84898     15.69866        -0.000058      0.000010     -0.001205
     -1.23365      4.98572     15.69866         0.000000     -0.000000     -0.001478
      3.70094      0.71225     15.69866         0.000021     -0.000055     -0.001205
      2.46729      2.84898     15.69866         0.000000     -0.000000     -0.001041
      1.23365      4.98572     15.69866        -0.000038      0.000046     -0.001205
      6.16823      0.71225     15.69866        -0.000000     -0.000000     -0.001480
      4.93458      2.84898     15.69866         0.000058      0.000010     -0.001205
      3.70094      4.98572     15.69866         0.000038      0.000046     -0.001205
      2.46729      2.84898      0.00000        -0.000000     -0.000000      0.000027
 -----------------------------------------------------------------------------------
    total drift:                                0.000096      0.000152      0.000234


--------------------------------------------------------------------------------------------------------



  FREE ENERGIE OF THE ION-ELECTRON SYSTEM (eV)
  ---------------------------------------------------
  free  energy   TOTEN  =      -334.60200161 eV

  energy  without entropy=     -334.56865990  energy(sigma->0) =     -334.58533075



--------------------------------------------------------------------------------------------------------


    POTLOK:  cpu time    0.0235: real time    0.0237


--------------------------------------------------------------------------------------------------------


 stress matrix after NEB project (eV)
     -3.82387      0.00000     -0.00000
      0.00000     -3.82387      0.00000
     -0.00000     -0.00000     -5.32670
  FORCES: max atom, RMS     0.006853    0.004769
  FORCE total and by dimension    0.029011    0.006853
  Stress total and by dimension    7.590636    5.326703
 Quasi-Newton relaxation of ions (Broydens 2nd method)
  g(Force)  = 0.406E-04   g(Stress)= 0.000E+00

 Reset! Starting new Quasi-Newton update for ions 


--------------------------------------------------------------------------------------------------------


  
 reached required accuracy - stopping structural energy minimisation
 writing wavefunctions
     LOOP+:  cpu time   75.8620: real time   76.4921
    4ORBIT:  cpu time    0.0000: real time    0.0000

 total amount of memory used by VASP MPI-rank0    71894. kBytes
=======================================================================

   base      :      30000. kBytes
   nonlr-proj:       1662. kBytes
   fftplans  :       3336. kBytes
   grid      :       5223. kBytes
   one-center:         30. kBytes
   wavefun   :      31643. kBytes

  
  
 General timing and accounting informations for this job:
 ========================================================
  
                  Total CPU time used (sec):       80.370
                            User time (sec):       79.260
                          System time (sec):        1.110
                         Elapsed time (sec):       84.691
  
                   Maximum memory used (kb):      200160.
                   Average memory used (kb):           0.
  
                          Minor page faults:        91878
                          Major page faults:            3
                 Voluntary context switches:        13364
