 vasp.5.4.4.18Apr17-6-g9f103f2a35 (build Sep 10 2024 21:01:58) complex           
 executed on             LinuxGNU date 2025.04.14  14:55:18
 running on   40 total cores
 distrk:  each k-point on   40 cores,    1 groups
 distr:  one band on NCORES_PER_BAND=   4 cores,   10 groups


--------------------------------------------------------------------------------------------------------


 INCAR:
 POTCAR:    PAW_PBE C 08Apr2002                   
 POTCAR:    PAW_PBE H 15Jun2001                   
 POTCAR:    PAW_PBE Li 17Jan2003                  
 POTCAR:    PAW_PBE C 08Apr2002                   
   SHA256 =  253f7b50bb8d59471dbedb8285d89021f4a42ed1a2c5d38a03a736e69125dd95 C/
   COPYR  = (c) Copyright 08Apr2002 Georg Kresse                                
   COPYR  = This file is part of the software VASP. Any use, copying, and all ot
   COPYR  = If you do not have a valid VASP license, you may not use, copy or di
   VRHFIN =C: s2p2                                                              
   LEXCH  = PE                                                                  
   EATOM  =   147.1560 eV,   10.8157 Ry                                         
                                                                                
   TITEL  = PAW_PBE C 08Apr2002                                                 
   LULTRA =        F    use ultrasoft PP ?                                      
   IUNSCR =        1    unscreen: 0-lin 1-nonlin 2-no                           
   RPACOR =    1.200    partial core radius                                     
   POMASS =   12.011; ZVAL   =    4.000    mass and valenz                      
   RCORE  =    1.500    outmost cutoff radius                                   
   RWIGS  =    1.630; RWIGS  =    0.863    wigner-seitz radius (au A)           
   ENMAX  =  400.000; ENMIN  =  300.000 eV                                      
   ICORE  =        2    local potential                                         
   LCOR   =        T    correct aug charges                                     
   LPAW   =        T    paw PP                                                  
   EAUG   =  644.873                                                            
   DEXC   =    0.000                                                            
   RMAX   =    1.529    core radius for proj-oper                               
   RAUG   =    1.300    factor for augmentation sphere                          
   RDEP   =    1.501    radius for radial grids                                 
   RDEPT  =    1.300    core radius for aug-charge                              
                                                                                
   Atomic configuration                                                         
    4 entries                                                                   
     n  l   j            E        occ.                                          
     1  0  0.50      -273.3789   2.0000                                         
     2  0  0.50       -13.7508   2.0000                                         
     2  1  0.50        -5.2854   2.0000                                         
     3  2  1.50        -5.4423   0.0000                                         
   Description                                                                  
     l       E           TYP  RCUT    TYP  RCUT                                 
     0    -13.7508458     23  1.200                                             
     0     -8.2022199     23  1.200                                             
     1     -5.2854383     23  1.500                                             
     1     34.0145650     23  1.500                                             
     2     -5.4423304      7  1.500                                             
  local pseudopotential read in
  partial core-charges read in
  partial kinetic energy density read in
  atomic valenz-charges read in
  non local Contribution for L=           0  read in
    real space projection operators read in
  non local Contribution for L=           0  read in
    real space projection operators read in
  non local Contribution for L=           1  read in
    real space projection operators read in
  non local Contribution for L=           1  read in
    real space projection operators read in
    PAW grid and wavefunctions read in

   number of l-projection  operators is LMAX  =           4
   number of lm-projection operators is LMMAX =           8

 POTCAR:    PAW_PBE H 15Jun2001                   
   SHA256 =  030f79b5d3ab3cf0e668861823c8fb652ff669f3e15e46930bd03bfd63a607b6 H/
   COPYR  = (c) Copyright 15Jun2001 Georg Kresse                                
   COPYR  = This file is part of the software VASP. Any use, copying, and all ot
   COPYR  = If you do not have a valid VASP license, you may not use, copy or di
   VRHFIN =H: ultrasoft test                                                    
   LEXCH  = PE                                                                  
   EATOM  =    12.4884 eV,    0.9179 Ry                                         
                                                                                
   TITEL  = PAW_PBE H 15Jun2001                                                 
   LULTRA =        F    use ultrasoft PP ?                                      
   IUNSCR =        0    unscreen: 0-lin 1-nonlin 2-no                           
   RPACOR =    0.000    partial core radius                                     
   POMASS =    1.000; ZVAL   =    1.000    mass and valenz                      
   RCORE  =    1.100    outmost cutoff radius                                   
   RWIGS  =    0.700; RWIGS  =    0.370    wigner-seitz radius (au A)           
   ENMAX  =  250.000; ENMIN  =  200.000 eV                                      
   RCLOC  =    0.701    cutoff for local pot                                    
   LCOR   =        T    correct aug charges                                     
   LPAW   =        T    paw PP                                                  
   EAUG   =  400.000                                                            
   RMAX   =    1.123    core radius for proj-oper                               
   RAUG   =    1.200    factor for augmentation sphere                          
   RDEP   =    1.112    radius for radial grids                                 
   RDEPT  =    0.926    core radius for aug-charge                              
                                                                                
   Atomic configuration                                                         
    2 entries                                                                   
     n  l   j            E        occ.                                          
     1  0  0.50        -6.4927   1.0000                                         
     2  1  0.50        -3.4015   0.0000                                         
   Description                                                                  
     l       E           TYP  RCUT    TYP  RCUT                                 
     0     -6.4927494     23  1.100                                             
     0      6.8029130     23  1.100                                             
     1     -4.0817478     23  1.100                                             
  local pseudopotential read in
  atomic valenz-charges read in
  non local Contribution for L=           0  read in
    real space projection operators read in
  non local Contribution for L=           0  read in
    real space projection operators read in
  non local Contribution for L=           1  read in
    real space projection operators read in
    PAW grid and wavefunctions read in

   number of l-projection  operators is LMAX  =           3
   number of lm-projection operators is LMMAX =           5

 POTCAR:    PAW_PBE Li 17Jan2003                  
   SHA256 =  3d9d9bfd1dd25b20a3b919cb3191e6ef627605783dc2e149b9290ff31c32aa6e Li
   COPYR  = (c) Copyright 17Jan2003 Georg Kresse                                
   COPYR  = This file is part of the software VASP. Any use, copying, and all ot
   COPYR  = If you do not have a valid VASP license, you may not use, copy or di
   VRHFIN =Li: s1p0                                                             
   LEXCH  = PE                                                                  
   EATOM  =     5.3001 eV,    0.3895 Ry                                         
                                                                                
   TITEL  = PAW_PBE Li 17Jan2003                                                
   LULTRA =        F    use ultrasoft PP ?                                      
   IUNSCR =        1    unscreen: 0-lin 1-nonlin 2-no                           
   RPACOR =    1.500    partial core radius                                     
   POMASS =    7.010; ZVAL   =    1.000    mass and valenz                      
   RCORE  =    2.050    outmost cutoff radius                                   
   RWIGS  =    2.600; RWIGS  =    1.376    wigner-seitz radius (au A)           
   ENMAX  =  140.000; ENMIN  =  100.000 eV                                      
   ICORE  =        2    local potential                                         
   LCOR   =        T    correct aug charges                                     
   LPAW   =        T    paw PP                                                  
   EAUG   =  331.638                                                            
   DEXC   =    0.000                                                            
   RMAX   =    2.098    core radius for proj-oper                               
   RAUG   =    1.300    factor for augmentation sphere                          
   RDEP   =    2.094    radius for radial grids                                 
   RDEPT  =    1.810    core radius for aug-charge                              
                                                                                
   Atomic configuration                                                         
    4 entries                                                                   
     n  l   j            E        occ.                                          
     1  0  0.50       -51.8549   2.0000                                         
     2  0  0.50        -2.8742   1.0000                                         
     2  1  0.50        -1.3606   0.0000                                         
     3  2  1.50        -1.3606   0.0000                                         
   Description                                                                  
     l       E           TYP  RCUT    TYP  RCUT                                 
     0     -2.8742052     23  2.050                                             
     0     27.2116520     23  2.050                                             
     1     -1.3605826     23  2.050                                             
     2     -1.3605826     23  2.050                                             
  local pseudopotential read in
  partial core-charges read in
  partial kinetic energy density read in
  atomic valenz-charges read in
  non local Contribution for L=           0  read in
    real space projection operators read in
  non local Contribution for L=           0  read in
    real space projection operators read in
  non local Contribution for L=           1  read in
    real space projection operators read in
    PAW grid and wavefunctions read in

   number of l-projection  operators is LMAX  =           3
   number of lm-projection operators is LMMAX =           5

 Optimization of the real space projectors (new method)

 maximal supplied QI-value         = 25.13
 optimisation between [QCUT,QGAM] = [ 10.05, 20.36] = [ 28.30,116.06] Ry 
 Optimized for a Real-space Cutoff    1.30 Angstroem

   l    n(q)    QCUT    max X(q) W(low)/X(q) W(high)/X(q)  e(spline) 
   0      8    10.053   115.676    0.49E-03    0.72E-03    0.18E-06
   0      8    10.053    87.132    0.49E-03    0.71E-03    0.18E-06
   1      7    10.053     4.429    0.32E-03    0.31E-03    0.18E-06
   1      7    10.053     2.733    0.23E-03    0.19E-03    0.20E-06
 Optimization of the real space projectors (new method)

 maximal supplied QI-value         = 34.20
 optimisation between [QCUT,QGAM] = [  9.92, 20.18] = [ 27.55,114.04] Ry 
 Optimized for a Real-space Cutoff    1.26 Angstroem

   l    n(q)    QCUT    max X(q) W(low)/X(q) W(high)/X(q)  e(spline) 
   0      8     9.919    19.460    0.50E-03    0.23E-03    0.29E-06
   0      8     9.919    12.209    0.48E-03    0.23E-03    0.28E-06
   1      7     9.919     4.655    0.17E-03    0.75E-03    0.30E-06
 Optimization of the real space projectors (new method)

 maximal supplied QI-value         = 18.33
 optimisation between [QCUT,QGAM] = [ 10.08, 20.35] = [ 28.46,115.93] Ry 
 Optimized for a Real-space Cutoff    1.16 Angstroem

   l    n(q)    QCUT    max X(q) W(low)/X(q) W(high)/X(q)  e(spline) 
   0      7    10.082    33.825    0.44E-03    0.14E-03    0.78E-07
   0      7    10.082     8.944    0.33E-03    0.12E-03    0.56E-07
   1      6    10.082     4.214    0.33E-03    0.37E-03    0.39E-07
  PAW_PBE C 08Apr2002                   :
 energy of atom  1       EATOM= -147.1560
 kinetic energy error for atom=    0.0288 (will be added to EATOM!!)
  PAW_PBE H 15Jun2001                   :
 energy of atom  2       EATOM=  -12.4884
 kinetic energy error for atom=    0.0098 (will be added to EATOM!!)
  PAW_PBE Li 17Jan2003                  :
 energy of atom  3       EATOM=   -5.3001
 kinetic energy error for atom=    0.0000 (will be added to EATOM!!)


 POSCAR: C4                                      
  positions in direct lattice
  velocities in cartesian coordinates
 exchange correlation table for  LEXCH =        8
   RHO(1)=    0.500       N(1)  =     2000
   RHO(2)=  100.500       N(2)  =     4000

 VTST: version 3.2, (02/03/18)

 CHAIN: initializing optimizer
 
 OPT: Using VASP Conjugate-Gradient optimizer
 CHAIN: Read ICHAIN            0

 POSCAR: C4                                      
  positions in direct lattice
  velocities in cartesian coordinates



--------------------------------------------------------------------------------------------------------


 ion  position               nearest neighbor table
   1  0.500  0.833  0.437-  64 1.42  56 1.42  49 1.43
   2  0.731  0.833  0.564- 112 1.09  90 1.40  74 1.40
   3  0.385  0.833  0.434-  53 1.42  61 1.42  51 1.43
   4  0.615  0.833  0.437-  62 1.42  54 1.42  52 1.43
   5  0.442  0.667  0.436-  49 1.42  65 1.42  53 1.43
   6  0.673  0.667  0.436-  50 1.42  66 1.42  54 1.43
   7  0.327  0.667  0.432-  51 1.41  67 1.42  55 1.44
   8  0.558  0.667  0.437-  52 1.42  68 1.42  56 1.43
   9  0.500  0.167  0.437-  64 1.42  72 1.42  57 1.43
  10  0.731  0.167  0.564- 114 1.09  82 1.40  74 1.40
  11  0.385  0.167  0.434-  69 1.42  61 1.42  59 1.43
  12  0.615  0.167  0.437-  70 1.42  62 1.42  60 1.43
  13  0.442  0.000  0.436-  57 1.42  49 1.42  61 1.43
  14  0.673  0.000  0.436-  50 1.42  58 1.42  62 1.43
  15  0.327  1.000  0.432-  51 1.42  59 1.42  63 1.44
  16  0.558  0.000  0.437-  60 1.42  52 1.42  64 1.43
  17  0.500  0.500  0.437-  72 1.42  56 1.42  65 1.43
  18  0.731  0.500  0.564- 113 1.09  90 1.40  82 1.40
  19  0.385  0.500  0.434-  53 1.42  69 1.42  67 1.43
  20  0.615  0.500  0.437-  70 1.42  54 1.42  68 1.43
  21  0.442  0.333  0.436-  57 1.42  65 1.42  69 1.43
  22  0.673  0.333  0.436-  66 1.42  58 1.42  70 1.43
  23  0.327  0.333  0.430-  59 1.42  67 1.42  71 1.45 121 2.61
  24  0.558  0.333  0.437-  60 1.42  68 1.42  72 1.43
  25  0.270  0.833  0.431- 109 1.09  55 1.40  63 1.40
  26  0.500  0.833  0.563-  73 1.42  89 1.42  80 1.43
  27  0.385  0.833  0.565-  75 1.42  91 1.42  77 1.43
  28  0.616  0.833  0.564-  92 1.42  76 1.42  78 1.43
  29  0.442  0.667  0.564-  77 1.42  93 1.42  89 1.43
  30  0.673  0.667  0.564-  78 1.42  94 1.42  90 1.44
  31  0.327  0.667  0.567-  79 1.41  95 1.42  91 1.43
  32  0.558  0.667  0.563-  80 1.42  96 1.42  92 1.43
  33  0.269  0.166  0.429- 111 1.09  63 1.41  71 1.41 121 2.45
  34  0.500  0.167  0.563-  73 1.42  81 1.42  88 1.43
  35  0.385  0.167  0.565-  83 1.42  75 1.42  85 1.43
  36  0.616  0.167  0.564-  84 1.42  76 1.42  86 1.43
  37  0.442  1.000  0.564-  77 1.42  85 1.42  73 1.43
  38  0.673  1.000  0.564-  78 1.42  86 1.42  74 1.44
  39  0.327  0.999  0.567-  79 1.41  87 1.42  75 1.43
  40  0.558  1.000  0.563-  80 1.42  88 1.42  76 1.43
  41  0.269  0.501  0.429- 110 1.09  55 1.41  71 1.41 121 2.45
  42  0.500  0.500  0.563-  89 1.42  81 1.42  96 1.43
  43  0.385  0.500  0.565-  83 1.42  91 1.42  93 1.43
  44  0.616  0.500  0.564-  84 1.42  92 1.42  94 1.43
  45  0.442  0.333  0.564-  85 1.42  93 1.42  81 1.43
  46  0.673  0.333  0.564-  86 1.42  94 1.42  82 1.44
  47  0.327  0.333  0.568-  87 1.42  95 1.42  83 1.43 121 2.43
  48  0.558  0.333  0.563-  88 1.42  96 1.42  84 1.43
  49  0.461  0.833  0.436-  13 1.42   5 1.42   1 1.43
  50  0.692  0.833  0.436-   6 1.42  14 1.42 100 1.44
  51  0.346  0.833  0.433-   7 1.41  15 1.42   3 1.43
  52  0.577  0.833  0.437-  16 1.42   8 1.42   4 1.43
  53  0.404  0.667  0.435-   3 1.42  19 1.42   5 1.43
  54  0.634  0.667  0.437-   4 1.42  20 1.42   6 1.43
  55  0.288  0.667  0.431-  25 1.40  41 1.41   7 1.44
  56  0.519  0.667  0.437-   1 1.42  17 1.42   8 1.43
  57  0.461  0.167  0.436-  13 1.42  21 1.42   9 1.43
  58  0.692  0.167  0.436-  22 1.42  14 1.42 102 1.44
  59  0.346  0.166  0.432-  15 1.42  23 1.42  11 1.43
  60  0.577  0.167  0.437-  16 1.42  24 1.42  12 1.43
  61  0.404  1.000  0.435-   3 1.42  11 1.42  13 1.43
  62  0.634  0.000  0.437-   4 1.42  12 1.42  14 1.43
  63  0.288  0.999  0.431-  25 1.40  33 1.41  15 1.44
  64  0.519  0.000  0.437-   1 1.42   9 1.42  16 1.43
  65  0.461  0.500  0.436-   5 1.42  21 1.42  17 1.43
  66  0.692  0.500  0.436-   6 1.42  22 1.42 101 1.44
  67  0.346  0.500  0.432-   7 1.42  23 1.42  19 1.43
  68  0.577  0.500  0.437-  24 1.42   8 1.42  20 1.43
  69  0.404  0.333  0.434-  11 1.42  19 1.42  21 1.43
  70  0.634  0.333  0.437-  12 1.42  20 1.42  22 1.43
  71  0.288  0.333  0.428-  33 1.41  41 1.41  23 1.45 121 2.11
  72  0.519  0.333  0.437-  17 1.42   9 1.42  24 1.43
  73  0.481  1.000  0.563-  34 1.42  26 1.42  37 1.43
  74  0.712  1.000  0.564-   2 1.40  10 1.40  38 1.44
  75  0.366  1.000  0.566-  27 1.42  35 1.42  39 1.43
  76  0.596  1.000  0.563-  36 1.42  28 1.42  40 1.43
  77  0.423  0.833  0.564-  37 1.42  29 1.42  27 1.43
  78  0.654  0.833  0.564-  30 1.42  38 1.42  28 1.43
  79  0.308  0.833  0.568-  31 1.41  39 1.41  97 1.45
  80  0.539  0.833  0.563-  40 1.42  32 1.42  26 1.43
  81  0.481  0.333  0.563-  42 1.42  34 1.42  45 1.43
  82  0.712  0.333  0.564-  10 1.40  18 1.40  46 1.44
  83  0.366  0.333  0.566-  35 1.42  43 1.42  47 1.43
  84  0.596  0.333  0.563-  36 1.42  44 1.42  48 1.43
  85  0.423  0.167  0.564-  37 1.42  45 1.42  35 1.43
  86  0.654  0.167  0.564-  46 1.42  38 1.42  36 1.43
  87  0.308  0.166  0.569-  39 1.42  47 1.42  99 1.45 121 2.38
  88  0.539  0.167  0.563-  48 1.42  40 1.42  34 1.43
  89  0.481  0.667  0.563-  42 1.42  26 1.42  29 1.43
  90  0.712  0.667  0.564-   2 1.40  18 1.40  30 1.44
  91  0.366  0.667  0.566-  27 1.42  43 1.42  31 1.43
  92  0.596  0.667  0.563-  28 1.42  44 1.42  32 1.43
  93  0.423  0.500  0.564-  45 1.42  29 1.42  43 1.43
  94  0.654  0.500  0.564-  46 1.42  30 1.42  44 1.43
  95  0.308  0.501  0.569-  31 1.42  47 1.42  98 1.45 121 2.38
  96  0.539  0.500  0.563-  32 1.42  48 1.42  42 1.43
  97  0.269  0.833  0.570- 103 1.40 105 1.40  79 1.45
  98  0.269  0.501  0.571- 103 1.40 104 1.41  95 1.45 121 2.29
  99  0.269  0.166  0.571- 105 1.40 104 1.41  87 1.45 121 2.29
 100  0.731  0.833  0.436- 108 1.40 106 1.40  50 1.44
 101  0.731  0.500  0.436- 108 1.40 107 1.40  66 1.44
 102  0.731  0.167  0.436- 107 1.40 106 1.40  58 1.44
 103  0.250  0.667  0.570- 115 1.09  97 1.40  98 1.40
 104  0.250  0.333  0.571- 116 1.09  98 1.41  99 1.41 121 2.22
 105  0.250  0.999  0.570- 117 1.09  97 1.40  99 1.40
 106  0.749  0.000  0.436- 118 1.09 100 1.40 102 1.40
 107  0.749  0.333  0.436- 119 1.09 101 1.40 102 1.40
 108  0.749  0.667  0.436- 120 1.09 100 1.40 101 1.40
 109  0.240  0.834  0.430-  25 1.09
 110  0.240  0.501  0.428-  41 1.09
 111  0.240  0.166  0.428-  33 1.09
 112  0.760  0.833  0.563-   2 1.09
 113  0.760  0.500  0.563-  18 1.09
 114  0.760  0.166  0.563-  10 1.09
 115  0.221  0.668  0.571- 103 1.09
 116  0.221  0.333  0.572- 104 1.09
 117  0.221  0.999  0.571- 105 1.09
 118  0.779  0.000  0.436- 106 1.09
 119  0.779  0.333  0.436- 107 1.09
 120  0.779  0.667  0.436- 108 1.09
 121  0.283  0.333  0.504-  71 2.11 104 2.22  99 2.29  98 2.29  95 2.38  87 2.38  47 2.43  33 2.45
                            41 2.45  23 2.61

  LATTYP: Found a simple orthorhombic cell.
 ALAT       =     7.3546423912
 B/A-ratio  =     3.7803434082
 C/A-ratio  =     5.0436007255
  
  Lattice vectors:
  
 A1 = (   0.0000000000,   7.3546423912,   0.0000000000)
 A2 = (   0.0000000000,   0.0000000000, -27.8030738831)
 A3 = ( -37.0938796997,   0.0000000000,   0.0000000000)


Analysis of symmetry for initial positions (statically):
=====================================================================
 Subroutine PRICEL returns:
 Original cell was already a primitive cell.
 

 Routine SETGRP: Setting up the symmetry group for a 
 simple orthorhombic supercell.


 Subroutine GETGRP returns: Found  1 space group operations
 (whereof  1 operations were pure point group operations)
 out of a pool of  8 trial point group operations.


The static configuration has the point symmetry C_1 .


Analysis of symmetry for dynamics (positions and initial velocities):
=====================================================================
 Subroutine PRICEL returns:
 Original cell was already a primitive cell.
 

 Routine SETGRP: Setting up the symmetry group for a 
 simple orthorhombic supercell.


 Subroutine GETGRP returns: Found  1 space group operations
 (whereof  1 operations were pure point group operations)
 out of a pool of  8 trial point group operations.


The dynamic configuration has the point symmetry C_1 .


Analysis of structural, dynamic, and magnetic symmetry:
=====================================================================
 Subroutine PRICEL returns:
 Original cell was already a primitive cell.
 

 Routine SETGRP: Setting up the symmetry group for a 
 simple orthorhombic supercell.


 Subroutine GETGRP returns: Found  1 space group operations
 (whereof  1 operations were pure point group operations)
 out of a pool of  8 trial point group operations.


The magnetic configuration has the point symmetry C_1 .


 Subroutine INISYM returns: Found  1 space group operations
 (whereof  1 operations are pure point group operations),
 and found     1 'primitive' translations



 KPOINTS: Regular k-point mesh                    

Automatic generation of k-mesh.
Space group operators:
 irot       det(A)        alpha          n_x          n_y          n_z        tau_x        tau_y        tau_z
    1     1.000000     0.000000     1.000000     0.000000     0.000000     0.000000     0.000000     0.000000
 
 Subroutine IBZKPT returns following result:
 ===========================================
 
 Found      5 irreducible k-points:
 
 Following reciprocal coordinates:
            Coordinates               Weight
  0.000000  0.000000  0.000000      1.000000
  0.000000  0.125000  0.000000      2.000000
  0.000000  0.250000  0.000000      2.000000
  0.000000  0.375000  0.000000      2.000000
  0.000000  0.500000  0.000000      1.000000
 
 Following cartesian coordinates:
            Coordinates               Weight
  0.000000  0.000000  0.000000      1.000000
  0.000000  0.016996  0.000000      2.000000
  0.000000  0.033992  0.000000      2.000000
  0.000000  0.050988  0.000000      2.000000
  0.000000  0.067984  0.000000      1.000000
 


--------------------------------------------------------------------------------------------------------




 Dimension of arrays:
   k-points           NKPTS =      5   k-points in BZ     NKDIM =      5   number of bands    NBANDS=    350
   number of dos      NEDOS =    301   number of ions     NIONS =    121
   non local maximal  LDIM  =      4   non local SUM 2l+1 LMDIM =      8
   total plane-waves  NPLWV = 967680
   max r-space proj   IRMAX =   1227   max aug-charges    IRDMAX=   4281
   dimension x,y,z NGX =   192 NGY =   36 NGZ =  140
   dimension x,y,z NGXF=   384 NGYF=   72 NGZF=  280
   support grid    NGXF=   384 NGYF=   72 NGZF=  280
   ions per type =             108  12   1
   NGX,Y,Z   is equivalent  to a cutoff of   8.60,  8.14,  8.37 a.u.
   NGXF,Y,Z  is equivalent  to a cutoff of  17.21, 16.28, 16.74 a.u.

 SYSTEM =  unknown system                          
 POSCAR =  C4                                      

 Startparameter for this run:
   NWRITE =      2    write-flag & timer
   PREC   = normal    normal or accurate (medium, high low for compatibility)
   ISTART =      0    job   : 0-new  1-cont  2-samecut
   ICHARG =      2    charge: 1-file 2-atom 10-const
   ISPIN  =      2    spin polarized calculation?
   LNONCOLLINEAR =      F non collinear calculations
   LSORBIT =      F    spin-orbit coupling
   INIWAV =      1    electr: 0-lowe 1-rand  2-diag
   LASPH  =      F    aspherical Exc in radial PAW
   METAGGA=      F    non-selfconsistent MetaGGA calc.

 Electronic Relaxation 1
   ENCUT  =  400.0 eV  29.40 Ry    5.42 a.u.  60.49 11.99 45.34*2*pi/ulx,y,z
   ENINI  =  400.0     initial cutoff
   ENAUG  =  644.9 eV  augmentation charge cutoff
   NELM   =    100;   NELMIN=  2; NELMDL= -5     # of ELM steps 
   EDIFF  = 0.1E-03   stopping-criterion for ELM
   LREAL  =      T    real-space projection
   NLSPLINE    = F    spline interpolate recip. space projectors
   LCOMPAT=      F    compatible to vasp.4.4
   GGA_COMPAT  = T    GGA compatible to vasp.4.4-vasp.4.6
   LMAXPAW     = -100 max onsite density
   LMAXMIX     =    2 max onsite mixed and CHGCAR
   VOSKOWN=      0    Vosko Wilk Nusair interpolation
   ROPT   =   -0.00050  -0.00050  -0.00050
 Ionic relaxation
   EDIFFG = -.3E-01   stopping-criterion for IOM
   NSW    =      0    number of steps for IOM
   NBLOCK =      1;   KBLOCK =      1    inner block; outer block 
   IBRION =     -1    ionic relax: 0-MD 1-quasi-New 2-CG
   NFREE  =      1    steps in history (QN), initial steepest desc. (CG)
   ISIF   =      2    stress and relaxation
   IWAVPR =     10    prediction:  0-non 1-charg 2-wave 3-comb
   ISYM   =      2    0-nonsym 1-usesym 2-fastsym
   LCORR  =      T    Harris-Foulkes like correction to forces

   POTIM  = 0.5000    time-step for ionic-motion
   TEIN   =    0.0    initial temperature
   TEBEG  =    0.0;   TEEND  =   0.0 temperature during run
   SMASS  =  -3.00    Nose mass-parameter (am)
   estimated Nose-frequenzy (Omega)   =  0.10E-29 period in steps =****** mass=  -0.314E-25a.u.
   SCALEE = 1.0000    scale energy and forces
   NPACO  =    256;   APACO  = 16.0  distance and # of slots for P.C.
   PSTRESS=    0.0 pullay stress

  Mass of Ions in am
   POMASS =  12.01  1.00  7.01
  Ionic Valenz
   ZVAL   =   4.00  1.00  1.00
  Atomic Wigner-Seitz radii
   RWIGS  =  -1.00 -1.00 -1.00
  virtual crystal weights 
   VCA    =   1.00  1.00  1.00
   NELECT =     445.0000    total number of electrons
   NUPDOWN=      -1.0000    fix difference up-down

 DOS related values:
   EMIN   =  10.00;   EMAX   =-10.00  energy-range for DOS
   EFERMI =   0.00
   ISMEAR =     0;   SIGMA  =   0.10  broadening in eV -4-tet -1-fermi 0-gaus

 Electronic relaxation 2 (details)
   IALGO  =     38    algorithm
   LDIAG  =      T    sub-space diagonalisation (order eigenvalues)
   LSUBROT=      F    optimize rotation matrix (better conditioning)
   TURBO    =      0    0=normal 1=particle mesh
   IRESTART =      0    0=no restart 2=restart with 2 vectors
   NREBOOT  =      0    no. of reboots
   NMIN     =      0    reboot dimension
   EREF     =   0.00    reference energy to select bands
   IMIX   =      4    mixing-type and parameters
     AMIX     =   0.40;   BMIX     =  1.00
     AMIX_MAG =   1.60;   BMIX_MAG =  1.00
     AMIN     =   0.10
     WC   =   100.;   INIMIX=   1;  MIXPRE=   1;  MAXMIX= -45

 Intra band minimization:
   WEIMIN = 0.0000     energy-eigenvalue tresh-hold
   EBREAK =  0.71E-07  absolut break condition
   DEPER  =   0.30     relativ break condition  

   TIME   =   0.40     timestep for ELM

  volume/ion in A,a.u.               =      62.69       423.03
  Fermi-wavevector in a.u.,A,eV,Ry     =   0.636125  1.202102  5.505670  0.404655
  Thomas-Fermi vector in A             =   1.700690

 Write flags
   LWAVE        =      T    write WAVECAR
   LDOWNSAMPLE  =      F    k-point downsampling of WAVECAR
   LCHARG       =      T    write CHGCAR
   LVTOT        =      F    write LOCPOT, total local potential
   LVHAR        =      F    write LOCPOT, Hartree potential only
   LELF         =      F    write electronic localiz. function (ELF)
   LORBIT       =      0    0 simple, 1 ext, 2 COOP (PROOUT), +10 PAW based schemes


 Dipole corrections
   LMONO  =      F    monopole corrections only (constant potential shift)
   LDIPOL =      F    correct potential (dipole corrections)
   IDIPOL =      0    1-x, 2-y, 3-z, 4-all directions 
   EPSILON=  1.0000000 bulk dielectric constant

 Exchange correlation treatment:
   GGA     =    --    GGA type
   LEXCH   =     8    internal setting for exchange type
   VOSKOWN=      0    Vosko Wilk Nusair interpolation
   LHFCALC =     F    Hartree Fock is set to
   LHFONE  =     F    Hartree Fock one center treatment
   AEXX    =    0.0000 exact exchange contribution

 Linear response parameters
   LEPSILON=     F    determine dielectric tensor
   LRPA    =     F    only Hartree local field effects (RPA)
   LNABLA  =     F    use nabla operator in PAW spheres
   LVEL    =     F    velocity operator in full k-point grid
   LINTERFAST=   F  fast interpolation
   KINTER  =     0    interpolate to denser k-point grid
   CSHIFT  =0.1000    complex shift for real part using Kramers Kronig
   OMEGAMAX=  -1.0    maximum frequency
   DEG_THRESHOLD= 0.2000000E-02 threshold for treating states as degnerate
   RTIME   =   -0.100 relaxation time in fs
  (WPLASMAI=    0.000 imaginary part of plasma frequency in eV, 0.658/RTIME)
   DFIELD  = 0.0000000 0.0000000 0.0000000 field for delta impulse in time

 Orbital magnetization related:
   ORBITALMAG=     F  switch on orbital magnetization
   LCHIMAG   =     F  perturbation theory with respect to B field
   DQ        =  0.001000  dq finite difference perturbation B field
   LLRAUG    =     F  two centre corrections for induced B field



--------------------------------------------------------------------------------------------------------


 Static calculation
 charge density and potential will be updated during run
 spin polarized calculation
 Variant of blocked Davidson
 Davidson routine will perform the subspace rotation
 perform sub-space diagonalisation
    after iterative eigenvector-optimisation
 modified Broyden-mixing scheme, WC =      100.0
 initial mixing is a Kerker type mixing with AMIX =  0.4000 and BMIX =      1.0000
 Hartree-type preconditioning will be used
 using additional bands          127
 real space projection scheme for non local part
 use partial core corrections
 calculate Harris-corrections to forces   (improved forces if not selfconsistent)
 use gradient corrections 
 use of overlap-Matrix (Vanderbilt PP)
 Gauss-broadening in eV      SIGMA  =   0.10


--------------------------------------------------------------------------------------------------------


  energy-cutoff  :      400.00
  volume of cell :     7585.02
      direct lattice vectors                 reciprocal lattice vectors
    37.093879700  0.000000000  0.000000000     0.026958625  0.000000000  0.000000000
     0.000000000  7.354642391  0.000000000     0.000000000  0.135968542  0.000000000
     0.000000000  0.000000000 27.803073883     0.000000000  0.000000000  0.035967246

  length of vectors
    37.093879700  7.354642391 27.803073883     0.026958625  0.135968542  0.035967246



 k-points in units of 2pi/SCALE and weight: Regular k-point mesh                    
   0.00000000  0.00000000  0.00000000       0.125
   0.00000000  0.01699607  0.00000000       0.250
   0.00000000  0.03399214  0.00000000       0.250
   0.00000000  0.05098820  0.00000000       0.250
   0.00000000  0.06798427  0.00000000       0.125

 k-points in reciprocal lattice and weights: Regular k-point mesh                    
   0.00000000  0.00000000  0.00000000       0.125
   0.00000000  0.12500000  0.00000000       0.250
   0.00000000  0.25000000  0.00000000       0.250
   0.00000000  0.37500000  0.00000000       0.250
   0.00000000  0.50000000  0.00000000       0.125

 position of ions in fractional coordinates (direct lattice) 
   0.49985153  0.83342207  0.43679314
   0.73056415  0.83322520  0.56355796
   0.38451463  0.83335740  0.43414291
   0.61525703  0.83339367  0.43674245
   0.44218755  0.66673759  0.43590693
   0.67300705  0.66670419  0.43633951
   0.32683580  0.66702108  0.43172014
   0.55753806  0.66673908  0.43695708
   0.49984691  0.16667273  0.43666542
   0.73055998  0.16660963  0.56356361
   0.38451668  0.16664887  0.43382990
   0.61525409  0.16670930  0.43682294
   0.44217882  0.00003794  0.43587361
   0.67300111  0.00003115  0.43632233
   0.32683748  0.99975226  0.43171243
   0.55753466  0.00006020  0.43694406
   0.49985005  0.50005177  0.43668018
   0.73055797  0.49994475  0.56355202
   0.38451661  0.50012210  0.43383668
   0.61524817  0.50003856  0.43683787
   0.44217761  0.33336685  0.43568345
   0.67300236  0.33339000  0.43634805
   0.32693050  0.33333053  0.43045747
   0.55753330  0.33335873  0.43694897
   0.26952871  0.83332194  0.43056448
   0.50018671  0.83331143  0.56320680
   0.38474412  0.83328765  0.56518127
   0.61556891  0.83324687  0.56356517
   0.44247019  0.66666153  0.56383034
   0.67325143  0.66663748  0.56388116
   0.32699508  0.66719660  0.56742110
   0.55786677  0.66663992  0.56319010
   0.26946128  0.16617973  0.42941121
   0.50017829  0.16659272  0.56324931
   0.38471976  0.16656396  0.56534771
   0.61556518  0.16663271  0.56350556
   0.44247007  0.99992037  0.56384965
   0.67324753  0.99992378  0.56387954
   0.32700627  0.99936161  0.56742861
   0.55786980  0.99993742  0.56320941
   0.26946393  0.50057087  0.42941631
   0.50017796  0.49994115  0.56322351
   0.38472576  0.49999747  0.56532755
   0.61556178  0.49992448  0.56350013
   0.44245574  0.33324051  0.56397481
   0.67324826  0.33324004  0.56387966
   0.32696288  0.33331300  0.56795779
   0.55786273  0.33324741  0.56314883
   0.46139981  0.83340762  0.43629702
   0.69213528  0.83335397  0.43617222
   0.34597431  0.83335587  0.43271822
   0.57676708  0.83341284  0.43696788
   0.40370728  0.66676752  0.43478596
   0.63445740  0.66672070  0.43660303
   0.28793059  0.66739956  0.43057418
   0.51906879  0.66673437  0.43683980
   0.46139093  0.16669628  0.43614431
   0.69213273  0.16671944  0.43614575
   0.34597382  0.16636836  0.43193046
   0.57676531  0.16669817  0.43692001
   0.40371067  0.99999720  0.43477078
   0.63445711  0.00004834  0.43660203
   0.28793445  0.99931875  0.43057133
   0.51907394  0.00004797  0.43683992
   0.46139479  0.50004819  0.43618329
   0.69213420  0.50004451  0.43617992
   0.34597239  0.50038734  0.43193814
   0.57676583  0.50003934  0.43694560
   0.40368580  0.33335620  0.43446069
   0.63445084  0.33336307  0.43671953
   0.28790075  0.33336943  0.42797476
   0.51906388  0.33336242  0.43678911
   0.48094464  0.99994583  0.56335561
   0.71211089  0.99989847  0.56377649
   0.36552067  0.99980888  0.56590771
   0.59635307  0.99993961  0.56341097
   0.42324151  0.83329358  0.56418224
   0.65412355  0.83325007  0.56383101
   0.30782896  0.83328535  0.56815138
   0.53864731  0.83330484  0.56317963
   0.48094646  0.33327585  0.56342752
   0.71210947  0.33326352  0.56378825
   0.36557970  0.33327599  0.56603797
   0.59635394  0.33324968  0.56334334
   0.42322466  0.16654470  0.56432660
   0.65412113  0.16661017  0.56380924
   0.30781528  0.16601538  0.56876459
   0.53863751  0.16658853  0.56316503
   0.48095358  0.66662698  0.56334022
   0.71211049  0.66660588  0.56378052
   0.36551797  0.66677347  0.56590024
   0.59635801  0.66661962  0.56341099
   0.42322020  0.49996735  0.56429760
   0.65412283  0.49994140  0.56380003
   0.30780614  0.50059603  0.56875125
   0.53863771  0.49994993  0.56313646
   0.26888820  0.83327577  0.56965498
   0.26873968  0.50098134  0.57062765
   0.26874247  0.16561353  0.57062541
   0.73100020  0.83334586  0.43591806
   0.73100710  0.50007274  0.43592028
   0.73100138  0.16670016  0.43590804
   0.25040617  0.66737700  0.57046745
   0.25029557  0.33330538  0.57077398
   0.25040416  0.99919843  0.57046547
   0.74946766  0.00001065  0.43584421
   0.74946566  0.33338616  0.43583890
   0.74946826  0.66672397  0.43584675
   0.24006733  0.83350247  0.43006552
   0.23999830  0.50079839  0.42802835
   0.23998897  0.16579665  0.42803719
   0.76002476  0.83337670  0.56298281
   0.76002273  0.49991280  0.56299284
   0.76003003  0.16645453  0.56298371
   0.22096105  0.66760143  0.57138183
   0.22085216  0.33319794  0.57150083
   0.22094674  0.99908299  0.57136412
   0.77895213  0.00004386  0.43583988
   0.77893883  0.33329107  0.43582903
   0.77893512  0.66679368  0.43583244
   0.28259947  0.33326191  0.50356882

 position of ions in cartesian coordinates  (Angst):
  18.54143247  6.12952125 12.14419199
  27.09945865  6.12807334 15.66864359
  14.26313947  6.12904563 12.07050734
  22.82227034  6.12931243 12.14278253
  16.40245179  4.90361656 12.11955272
  24.96444260  4.90337089 12.13157962
  12.12360785  4.90570148 12.00314692
  20.68124972  4.90362750 12.14874989
  18.54126108  1.22581832 12.14064099
  27.09930384  1.22535424 15.66880055
  14.26321545  1.22564284 12.06180471
  22.82216136  1.22608726 12.14502040
  16.40212810  0.00027905 12.11862613
  24.96422205  0.00022908 12.13110197
  12.12367030  7.35282035 12.00293263
  20.68112344  0.00044273 12.14838796
  18.54137772  3.67770196 12.14105124
  27.09922937  3.67691489 15.66847848
  14.26321292  3.67821920 12.06199334
  22.82194161  3.67760479 12.14543544
  16.40208322  2.45179399 12.11333924
  24.96426861  2.45196420 12.13181700
  12.12712079  2.45152681 11.96804078
  20.68107304  2.45173425 12.14852455
   9.99786536  6.12878485 11.97101604
  18.55386582  6.12870756 15.65888020
  14.27165199  6.12853270 15.71377666
  22.83383928  6.12823277 15.66884412
  16.41293612  4.90305717 15.67621663
  24.97350753  4.90288027 15.67762954
  12.12951609  4.90699238 15.77605078
  20.69344270  4.90289825 15.65841598
   9.99536417  1.22219246 11.93895166
  18.55355321  1.22522987 15.66006215
  14.27074856  1.22501834 15.71840425
  22.83370086  1.22552401 15.66718670
  16.41293160  7.35405672 15.67675358
  24.97336272  7.35408181 15.67758442
  12.12993143  7.34994728 15.77625957
  20.69355510  7.35418214 15.65895285
   9.99546267  3.68151976 11.93909352
  18.55354113  3.67688839 15.65934489
  14.27097101  3.67730260 15.71784371
  22.83357475  3.67676578 15.66703564
  16.41240012  2.45086475 15.68023319
  24.97338999  2.45086134 15.67758791
  12.12832167  2.45139791 15.79097242
  20.69329303  2.45091549 15.65726839
  17.11510909  6.12941501 12.13039838
  25.67398274  6.12902045 12.12692841
  12.83352937  6.12903442 12.03089672
  21.39452875  6.12945343 12.14905024
  14.97506920  4.90383669 12.08838627
  23.53448634  4.90349234 12.13890634
  10.68046281  4.90848509 11.97128571
  19.25427515  4.90359286 12.14548921
  17.11477962  1.22599155 12.12615245
  25.67388828  1.22616189 12.12619249
  12.83351115  1.22357981 12.00899441
  21.39446315  1.22600546 12.14771938
  14.97519488  7.35462180 12.08796409
  23.53447584  0.00035552 12.13887848
  10.68060567  7.34963201 11.97120657
  19.25446629  0.00035282 12.14549258
  17.11492286  3.67767564 12.12723627
  25.67394271  3.67764854 12.12714256
  12.83345814  3.68016994 12.00920796
  21.39448221  3.67761055 12.14843067
  14.97427232  2.45171564 12.07934276
  23.53424332  2.45176613 12.14214531
  10.67935574  2.45181295 11.89901393
  19.25409295  2.45176137 12.14407977
  17.84010259  7.35424396 15.66301773
  26.41495581  7.35389565 15.67471932
  13.55857960  7.35323676 15.73397393
  22.12104893  7.35419822 15.66455689
  15.69966977  6.12857630 15.68600037
  24.26398030  6.12825630 15.67623509
  11.41857024  6.12851576 15.79635473
  19.98051845  6.12865913 15.65812477
  17.84017002  2.45112467 15.66501701
  26.41490284  2.45103401 15.67504640
  13.56076941  2.45112571 15.73759540
  22.12108138  2.45093220 15.66267645
  15.69904462  1.22487672 15.69001425
  24.26389059  1.22535819 15.67563005
  11.41806288  1.22098378 15.81340385
  19.98015506  1.22519910 15.65771904
  17.84043422  4.90280305 15.66258987
  26.41494068  4.90264790 15.67483133
  13.55847942  4.90388042 15.73376612
  22.12123210  4.90274892 15.66455750
  15.69887915  3.67708110 15.68920774
  24.26395366  3.67689024 15.67537402
  11.41772411  3.68170481 15.81303289
  19.98016252  3.67695296 15.65692454
   9.97410668  6.12844529 15.83815961
   9.96859750  3.68453857 15.86520284
   9.96870088  1.21802828 15.86514035
  27.11563335  6.12896082 12.11986217
  27.11588927  3.67785617 12.11992384
  27.11567729  1.22602008 12.11958357
   9.28853618  4.90831918 15.86074872
   9.28443365  2.45134186 15.86927117
   9.28846179  7.34874712 15.86069370
  27.80066325  0.00007831 12.11780864
  27.80058891  2.45193597 12.11766119
  27.80068536  4.90351639 12.11787952
   8.90502865  6.13011258 11.95714343
   8.90246789  3.68319310 11.90050388
   8.90212192  1.21937508 11.90074975
  28.19226700  6.12918763 15.65265270
  28.19219177  3.67667989 15.65293164
  28.19246245  1.22421352 15.65267766
   8.19630269  4.90996981 15.88617131
   8.19226331  2.45055168 15.88947978
   8.19577164  7.34789809 15.88567879
  28.89435666  0.00032260 12.11768826
  28.89386316  2.45123663 12.11738674
  28.89372571  4.90402908 12.11748160
  10.48271092  2.45102221 14.00076116



--------------------------------------------------------------------------------------------------------


 k-point  1 :   0.0000 0.0000 0.0000  plane waves:  137621
 k-point  2 :   0.0000 0.1250 0.0000  plane waves:  137658
 k-point  3 :   0.0000 0.2500 0.0000  plane waves:  137784
 k-point  4 :   0.0000 0.3750 0.0000  plane waves:  137874
 k-point  5 :   0.0000 0.5000 0.0000  plane waves:  137872

 maximum and minimum number of plane-waves per node :     34603    34274

 maximum number of plane-waves:    137874
 maximum index in each direction: 
   IXMAX=   60   IYMAX=   11   IZMAX=   45
   IXMIN=  -60   IYMIN=  -12   IZMIN=  -45


 real space projection operators:
  total allocation   :       8238.97 KBytes
  max/ min on nodes  :       2064.36       2055.90


 parallel 3D FFT for wavefunctions:
    minimum data exchange during FFTs selected (reduces bandwidth)
 parallel 3D FFT for charge:
    minimum data exchange during FFTs selected (reduces bandwidth)


 total amount of memory used by VASP MPI-rank0   280957. kBytes
=======================================================================

   base      :      30000. kBytes
   nonlr-proj:       4980. kBytes
   fftplans  :      14214. kBytes
   grid      :      37253. kBytes
   one-center:        190. kBytes
   wavefun   :     194320. kBytes

     INWAV:  cpu time    0.0001: real time    0.0001
 Broyden mixing: mesh for mixing (old mesh)
   NGX =121   NGY = 23   NGZ = 91
  (NGX  =384   NGY  = 72   NGZ  =280)
  gives a total of 253253 points

 initial charge density was supplied:
 charge density of overlapping atoms calculated
 number of electron     445.0000000 magnetization     121.0000000
 keeping initial charge density in first step


--------------------------------------------------------------------------------------------------------


 Maximum index for non-local projection operator          301
 Maximum index for augmentation-charges          150 (set IRDMAX)


--------------------------------------------------------------------------------------------------------


 First call to EWALD:  gamma=   0.090
 Maximum number of real-space cells 2x 7x 2
 Maximum number of reciprocal cells 5x 1x 4

    FEWALD:  cpu time    0.0048: real time    0.0049


--------------------------------------- Iteration      1(   1)  ---------------------------------------


    POTLOK:  cpu time    0.2857: real time    0.2949
    SETDIJ:  cpu time    0.0159: real time    0.0160
     EDDAV:  cpu time   41.9278: real time   42.1891
       DOS:  cpu time    0.0021: real time    0.0022
    --------------------------------------------
      LOOP:  cpu time   42.2316: real time   42.5022

 eigenvalue-minimisations  :  8580
 total energy-change (2. order) : 0.3580736E+04  (-0.1385838E+05)
 number of electron     445.0000000 magnetization     121.0000000
 augmentation part      445.0000000 magnetization     121.0000000

 Free energy of the ion-electron system (eV)
  ---------------------------------------------------
  alpha Z        PSCENC =       131.99278517
  Ewald energy   TEWEN  =    183373.75247824
  -Hartree energ DENC   =   -194671.51817683
  -exchange      EXHF   =         0.00000000
  -V(xc)+E(xc)   XCENC  =      1470.96609786
  PAW double counting   =     11735.59191605   -11790.67375283
  entropy T*S    EENTRO =        -0.28311142
  eigenvalues    EBANDS =     -2713.87581308
  atomic energy  EATOM  =     16044.78385898
  Solvation  Ediel_sol  =         0.00000000
  ---------------------------------------------------
  free energy    TOTEN  =      3580.73628214 eV

  energy without entropy =     3581.01939356  energy(sigma->0) =     3580.87783785


--------------------------------------------------------------------------------------------------------




--------------------------------------- Iteration      1(   2)  ---------------------------------------


     EDDAV:  cpu time   50.3110: real time   50.6170
       DOS:  cpu time    0.0026: real time    0.0026
    --------------------------------------------
      LOOP:  cpu time   50.3136: real time   50.6197

 eigenvalue-minimisations  : 10860
 total energy-change (2. order) :-0.3816390E+04  (-0.3495914E+04)
 number of electron     445.0000000 magnetization     121.0000000
 augmentation part      445.0000000 magnetization     121.0000000

 Free energy of the ion-electron system (eV)
  ---------------------------------------------------
  alpha Z        PSCENC =       131.99278517
  Ewald energy   TEWEN  =    183373.75247824
  -Hartree energ DENC   =   -194671.51817683
  -exchange      EXHF   =         0.00000000
  -V(xc)+E(xc)   XCENC  =      1470.96609786
  PAW double counting   =     11735.59191605   -11790.67375283
  entropy T*S    EENTRO =        -0.02769489
  eigenvalues    EBANDS =     -6530.52160703
  atomic energy  EATOM  =     16044.78385898
  Solvation  Ediel_sol  =         0.00000000
  ---------------------------------------------------
  free energy    TOTEN  =      -235.65409528 eV

  energy without entropy =     -235.62640039  energy(sigma->0) =     -235.64024784


--------------------------------------------------------------------------------------------------------




--------------------------------------- Iteration      1(   3)  ---------------------------------------


     EDDAV:  cpu time   44.7277: real time   44.9862
       DOS:  cpu time    0.0026: real time    0.0026
    --------------------------------------------
      LOOP:  cpu time   44.7302: real time   44.9888

 eigenvalue-minimisations  :  9510
 total energy-change (2. order) :-0.7843354E+03  (-0.7807974E+03)
 number of electron     445.0000000 magnetization     121.0000000
 augmentation part      445.0000000 magnetization     121.0000000

 Free energy of the ion-electron system (eV)
  ---------------------------------------------------
  alpha Z        PSCENC =       131.99278517
  Ewald energy   TEWEN  =    183373.75247824
  -Hartree energ DENC   =   -194671.51817683
  -exchange      EXHF   =         0.00000000
  -V(xc)+E(xc)   XCENC  =      1470.96609786
  PAW double counting   =     11735.59191605   -11790.67375283
  entropy T*S    EENTRO =        -0.02788911
  eigenvalues    EBANDS =     -7314.85679124
  atomic energy  EATOM  =     16044.78385898
  Solvation  Ediel_sol  =         0.00000000
  ---------------------------------------------------
  free energy    TOTEN  =     -1019.98947372 eV

  energy without entropy =    -1019.96158461  energy(sigma->0) =    -1019.97552917


--------------------------------------------------------------------------------------------------------




--------------------------------------- Iteration      1(   4)  ---------------------------------------


     EDDAV:  cpu time   43.7011: real time   43.9799
       DOS:  cpu time    0.0013: real time    0.0013
    --------------------------------------------
      LOOP:  cpu time   43.7024: real time   43.9812

 eigenvalue-minimisations  :  9360
 total energy-change (2. order) :-0.2952090E+02  (-0.2938923E+02)
 number of electron     445.0000000 magnetization     121.0000000
 augmentation part      445.0000000 magnetization     121.0000000

 Free energy of the ion-electron system (eV)
  ---------------------------------------------------
  alpha Z        PSCENC =       131.99278517
  Ewald energy   TEWEN  =    183373.75247824
  -Hartree energ DENC   =   -194671.51817683
  -exchange      EXHF   =         0.00000000
  -V(xc)+E(xc)   XCENC  =      1470.96609786
  PAW double counting   =     11735.59191605   -11790.67375283
  entropy T*S    EENTRO =        -0.02948679
  eigenvalues    EBANDS =     -7344.37609457
  atomic energy  EATOM  =     16044.78385898
  Solvation  Ediel_sol  =         0.00000000
  ---------------------------------------------------
  free energy    TOTEN  =     -1049.51037472 eV

  energy without entropy =    -1049.48088793  energy(sigma->0) =    -1049.49563133


--------------------------------------------------------------------------------------------------------




--------------------------------------- Iteration      1(   5)  ---------------------------------------


     EDDAV:  cpu time   46.7123: real time   47.0064
       DOS:  cpu time    0.0022: real time    0.0022
    CHARGE:  cpu time    0.9248: real time    0.9311
    MIXING:  cpu time    0.0063: real time    0.0065
    --------------------------------------------
      LOOP:  cpu time   47.6457: real time   47.9463

 eigenvalue-minimisations  : 10130
 total energy-change (2. order) :-0.7159560E+00  (-0.7142218E+00)
 number of electron     444.9999355 magnetization     115.8283428
 augmentation part       11.7616058 magnetization     111.1007013

 Broyden mixing:
  rms(total) = 0.70023E+01    rms(broyden)= 0.69999E+01
  rms(prec ) = 0.70764E+01
  weight for this iteration     100.00

 Free energy of the ion-electron system (eV)
  ---------------------------------------------------
  alpha Z        PSCENC =       131.99278517
  Ewald energy   TEWEN  =    183373.75247824
  -Hartree energ DENC   =   -194671.51817683
  -exchange      EXHF   =         0.00000000
  -V(xc)+E(xc)   XCENC  =      1470.96609786
  PAW double counting   =     11735.59191605   -11790.67375283
  entropy T*S    EENTRO =        -0.02955908
  eigenvalues    EBANDS =     -7345.09197829
  atomic energy  EATOM  =     16044.78385898
  Solvation  Ediel_sol  =         0.00000000
  ---------------------------------------------------
  free energy    TOTEN  =     -1050.22633074 eV

  energy without entropy =    -1050.19677165  energy(sigma->0) =    -1050.21155119


--------------------------------------------------------------------------------------------------------




--------------------------------------- Iteration      1(   6)  ---------------------------------------


    POTLOK:  cpu time    0.2375: real time    0.2388
    SETDIJ:  cpu time    0.0194: real time    0.0195
     EDDAV:  cpu time   38.5416: real time   38.7823
       DOS:  cpu time    0.0040: real time    0.0040
    CHARGE:  cpu time    0.8414: real time    0.8464
    MIXING:  cpu time    0.0054: real time    0.0054
    --------------------------------------------
      LOOP:  cpu time   39.6492: real time   39.8965

 eigenvalue-minimisations  :  8040
 total energy-change (2. order) : 0.3622465E+03  (-0.5942614E+02)
 number of electron     444.9999391 magnetization     109.7244692
 augmentation part       11.6193830 magnetization     103.1950659

 Broyden mixing:
  rms(total) = 0.41683E+01    rms(broyden)= 0.41677E+01
  rms(prec ) = 0.42227E+01
  weight for this iteration     100.00

 eigenvalues of (default mixing * dielectric matrix)
  average eigenvalue GAMMA=   1.0082
  1.0082

 Free energy of the ion-electron system (eV)
  ---------------------------------------------------
  alpha Z        PSCENC =       131.99278517
  Ewald energy   TEWEN  =    183373.75247824
  -Hartree energ DENC   =   -195414.46150897
  -exchange      EXHF   =         0.00000000
  -V(xc)+E(xc)   XCENC  =      1728.67055098
  PAW double counting   =     21861.97775704   -21925.98747224
  entropy T*S    EENTRO =        -0.03640695
  eigenvalues    EBANDS =     -6488.67187762
  atomic energy  EATOM  =     16044.78385898
  Solvation  Ediel_sol  =         0.00000000
  ---------------------------------------------------
  free energy    TOTEN  =      -687.97983536 eV

  energy without entropy =     -687.94342841  energy(sigma->0) =     -687.96163189


--------------------------------------------------------------------------------------------------------




--------------------------------------- Iteration      1(   7)  ---------------------------------------


    POTLOK:  cpu time    0.2378: real time    0.2391
    SETDIJ:  cpu time    0.0200: real time    0.0201
     EDDAV:  cpu time   39.1477: real time   39.4192
       DOS:  cpu time    0.0041: real time    0.0041
    CHARGE:  cpu time    0.8635: real time    0.8687
    MIXING:  cpu time    0.0062: real time    0.0062
    --------------------------------------------
      LOOP:  cpu time   40.2793: real time   40.5575

 eigenvalue-minimisations  :  8250
 total energy-change (2. order) :-0.4030213E+02  (-0.6649863E+01)
 number of electron     444.9999406 magnetization     100.9636992
 augmentation part       11.3064212 magnetization      94.7685326

 Broyden mixing:
  rms(total) = 0.28915E+01    rms(broyden)= 0.28912E+01
  rms(prec ) = 0.29092E+01
  weight for this iteration     100.00

 eigenvalues of (default mixing * dielectric matrix)
  average eigenvalue GAMMA=   1.2895
  0.8114  1.7676

 Free energy of the ion-electron system (eV)
  ---------------------------------------------------
  alpha Z        PSCENC =       131.99278517
  Ewald energy   TEWEN  =    183373.75247824
  -Hartree energ DENC   =   -196121.92413861
  -exchange      EXHF   =         0.00000000
  -V(xc)+E(xc)   XCENC  =      1702.13666865
  PAW double counting   =     32714.89632337   -32783.98237626
  entropy T*S    EENTRO =        -0.03130535
  eigenvalues    EBANDS =     -5789.90625492
  atomic energy  EATOM  =     16044.78385898
  Solvation  Ediel_sol  =         0.00000000
  ---------------------------------------------------
  free energy    TOTEN  =      -728.28196072 eV

  energy without entropy =     -728.25065537  energy(sigma->0) =     -728.26630805


--------------------------------------------------------------------------------------------------------




--------------------------------------- Iteration      1(   8)  ---------------------------------------


    POTLOK:  cpu time    0.2280: real time    0.2294
    SETDIJ:  cpu time    0.0195: real time    0.0196
     EDDAV:  cpu time   39.3772: real time   39.6348
       DOS:  cpu time    0.0043: real time    0.0044
    CHARGE:  cpu time    0.8457: real time    0.8508
    MIXING:  cpu time    0.0092: real time    0.0092
    --------------------------------------------
      LOOP:  cpu time   40.4838: real time   40.7482

 eigenvalue-minimisations  :  8310
 total energy-change (2. order) :-0.3877733E+02  (-0.3655895E+01)
 number of electron     444.9999416 magnetization      94.6069707
 augmentation part       10.9394947 magnetization      89.1277099

 Broyden mixing:
  rms(total) = 0.20355E+01    rms(broyden)= 0.20352E+01
  rms(prec ) = 0.20397E+01
  weight for this iteration     100.00

 eigenvalues of (default mixing * dielectric matrix)
  average eigenvalue GAMMA=   1.3536
  2.3627  1.0046  0.6936

 Free energy of the ion-electron system (eV)
  ---------------------------------------------------
  alpha Z        PSCENC =       131.99278517
  Ewald energy   TEWEN  =    183373.75247824
  -Hartree energ DENC   =   -196769.93481006
  -exchange      EXHF   =         0.00000000
  -V(xc)+E(xc)   XCENC  =      1693.13495318
  PAW double counting   =     45377.92461569   -45449.72775327
  entropy T*S    EENTRO =        -0.04134712
  eigenvalues    EBANDS =     -5168.94407220
  atomic energy  EATOM  =     16044.78385898
  Solvation  Ediel_sol  =         0.00000000
  ---------------------------------------------------
  free energy    TOTEN  =      -767.05929138 eV

  energy without entropy =     -767.01794426  energy(sigma->0) =     -767.03861782


--------------------------------------------------------------------------------------------------------




--------------------------------------- Iteration      1(   9)  ---------------------------------------


    POTLOK:  cpu time    0.2282: real time    0.2296
    SETDIJ:  cpu time    0.0190: real time    0.0191
     EDDAV:  cpu time   39.3084: real time   39.5698
       DOS:  cpu time    0.0034: real time    0.0034
    CHARGE:  cpu time    0.8418: real time    0.8489
    MIXING:  cpu time    0.0132: real time    0.0133
    --------------------------------------------
      LOOP:  cpu time   40.4139: real time   40.6841

 eigenvalue-minimisations  :  8330
 total energy-change (2. order) :-0.3822257E+02  (-0.1016290E+01)
 number of electron     444.9999419 magnetization      84.0158691
 augmentation part       10.8406049 magnetization      79.0635441

 Broyden mixing:
  rms(total) = 0.17068E+01    rms(broyden)= 0.17067E+01
  rms(prec ) = 0.17101E+01
  weight for this iteration     100.00

 eigenvalues of (default mixing * dielectric matrix)
  average eigenvalue GAMMA=   1.4187
  2.6222  1.5497  0.8461  0.6571

 Free energy of the ion-electron system (eV)
  ---------------------------------------------------
  alpha Z        PSCENC =       131.99278517
  Ewald energy   TEWEN  =    183373.75247824
  -Hartree energ DENC   =   -196904.37685279
  -exchange      EXHF   =         0.00000000
  -V(xc)+E(xc)   XCENC  =      1673.82581424
  PAW double counting   =     49018.45724152   -49089.42038307
  entropy T*S    EENTRO =        -0.04948033
  eigenvalues    EBANDS =     -5054.24732220
  atomic energy  EATOM  =     16044.78385898
  Solvation  Ediel_sol  =         0.00000000
  ---------------------------------------------------
  free energy    TOTEN  =      -805.28186024 eV

  energy without entropy =     -805.23237991  energy(sigma->0) =     -805.25712007


--------------------------------------------------------------------------------------------------------




--------------------------------------- Iteration      1(  10)  ---------------------------------------


    POTLOK:  cpu time    0.2354: real time    0.2372
    SETDIJ:  cpu time    0.0210: real time    0.0213
     EDDAV:  cpu time   37.7800: real time   38.0276
       DOS:  cpu time    0.0033: real time    0.0034
    CHARGE:  cpu time    0.8268: real time    0.8320
    MIXING:  cpu time    0.0092: real time    0.0092
    --------------------------------------------
      LOOP:  cpu time   38.8758: real time   39.1308

 eigenvalue-minimisations  :  7920
 total energy-change (2. order) :-0.7640589E+02  (-0.3608791E+01)
 number of electron     444.9999414 magnetization      73.2478777
 augmentation part       10.7786425 magnetization      69.0912854

 Broyden mixing:
  rms(total) = 0.13483E+01    rms(broyden)= 0.13482E+01
  rms(prec ) = 0.13511E+01
  weight for this iteration     100.00

 eigenvalues of (default mixing * dielectric matrix)
  average eigenvalue GAMMA=   1.5293
  2.9653  2.2753  0.9151  0.8649  0.6258

 Free energy of the ion-electron system (eV)
  ---------------------------------------------------
  alpha Z        PSCENC =       131.99278517
  Ewald energy   TEWEN  =    183373.75247824
  -Hartree energ DENC   =   -196979.73513283
  -exchange      EXHF   =         0.00000000
  -V(xc)+E(xc)   XCENC  =      1627.48058461
  PAW double counting   =     50669.70162513   -50738.29886503
  entropy T*S    EENTRO =        -0.04162501
  eigenvalues    EBANDS =     -5011.32345763
  atomic energy  EATOM  =     16044.78385898
  Solvation  Ediel_sol  =         0.00000000
  ---------------------------------------------------
  free energy    TOTEN  =      -881.68774837 eV

  energy without entropy =     -881.64612336  energy(sigma->0) =     -881.66693586


--------------------------------------------------------------------------------------------------------




--------------------------------------- Iteration      1(  11)  ---------------------------------------


    POTLOK:  cpu time    0.2321: real time    0.2334
    SETDIJ:  cpu time    0.0382: real time    0.0384
     EDDAV:  cpu time   38.1856: real time   38.4357
       DOS:  cpu time    0.0047: real time    0.0048
    CHARGE:  cpu time    0.7713: real time    0.7763
    MIXING:  cpu time    0.0096: real time    0.0099
    --------------------------------------------
      LOOP:  cpu time   39.2416: real time   39.4986

 eigenvalue-minimisations  :  7700
 total energy-change (2. order) :-0.5620507E+02  (-0.3050073E+01)
 number of electron     444.9999410 magnetization      64.2675341
 augmentation part       10.7177913 magnetization      61.0740387

 Broyden mixing:
  rms(total) = 0.11076E+01    rms(broyden)= 0.11074E+01
  rms(prec ) = 0.11113E+01
  weight for this iteration     100.00

 eigenvalues of (default mixing * dielectric matrix)
  average eigenvalue GAMMA=   1.5270
  3.5296  2.4558  0.9415  0.9415  0.6467  0.6467

 Free energy of the ion-electron system (eV)
  ---------------------------------------------------
  alpha Z        PSCENC =       131.99278517
  Ewald energy   TEWEN  =    183373.75247824
  -Hartree energ DENC   =   -197049.91983566
  -exchange      EXHF   =         0.00000000
  -V(xc)+E(xc)   XCENC  =      1592.47345742
  PAW double counting   =     50182.13663491   -50249.59085226
  entropy T*S    EENTRO =        -0.02508095
  eigenvalues    EBANDS =     -4963.49626867
  atomic energy  EATOM  =     16044.78385898
  Solvation  Ediel_sol  =         0.00000000
  ---------------------------------------------------
  free energy    TOTEN  =      -937.89282282 eV

  energy without entropy =     -937.86774187  energy(sigma->0) =     -937.88028234


--------------------------------------------------------------------------------------------------------




--------------------------------------- Iteration      1(  12)  ---------------------------------------


    POTLOK:  cpu time    0.2308: real time    0.2323
    SETDIJ:  cpu time    0.0233: real time    0.0235
     EDDAV:  cpu time   35.2838: real time   35.4969
       DOS:  cpu time    0.0049: real time    0.0050
    CHARGE:  cpu time    0.8218: real time    0.8277
    MIXING:  cpu time    0.0147: real time    0.0148
    --------------------------------------------
      LOOP:  cpu time   36.3793: real time   36.6002

 eigenvalue-minimisations  :  7760
 total energy-change (2. order) :-0.3621079E+02  (-0.1806360E+01)
 number of electron     444.9999408 magnetization      50.5587922
 augmentation part       10.6728332 magnetization      47.9356536

 Broyden mixing:
  rms(total) = 0.87955E+00    rms(broyden)= 0.87940E+00
  rms(prec ) = 0.88218E+00
  weight for this iteration     100.00

 eigenvalues of (default mixing * dielectric matrix)
  average eigenvalue GAMMA=   1.7556
  5.1837  2.5895  1.5130  0.9526  0.7163  0.7163  0.6182

 Free energy of the ion-electron system (eV)
  ---------------------------------------------------
  alpha Z        PSCENC =       131.99278517
  Ewald energy   TEWEN  =    183373.75247824
  -Hartree energ DENC   =   -197062.36081735
  -exchange      EXHF   =         0.00000000
  -V(xc)+E(xc)   XCENC  =      1568.54253021
  PAW double counting   =     49009.80500449   -49076.97712872
  entropy T*S    EENTRO =        -0.04203304
  eigenvalues    EBANDS =     -4963.60028625
  atomic energy  EATOM  =     16044.78385898
  Solvation  Ediel_sol  =         0.00000000
  ---------------------------------------------------
  free energy    TOTEN  =      -974.10360826 eV

  energy without entropy =     -974.06157522  energy(sigma->0) =     -974.08259174


--------------------------------------------------------------------------------------------------------




--------------------------------------- Iteration      1(  13)  ---------------------------------------


    POTLOK:  cpu time    0.2178: real time    0.2193
    SETDIJ:  cpu time    0.0224: real time    0.0226
     EDDAV:  cpu time   35.2958: real time   35.4929
       DOS:  cpu time    0.0052: real time    0.0053
    CHARGE:  cpu time    0.8059: real time    0.8101
    MIXING:  cpu time    0.0105: real time    0.0105
    --------------------------------------------
      LOOP:  cpu time   36.3576: real time   36.5607

 eigenvalue-minimisations  :  8050
 total energy-change (2. order) :-0.3435238E+02  (-0.3965845E+01)
 number of electron     444.9999405 magnetization      42.4919254
 augmentation part       10.5900765 magnetization      40.0888754

 Broyden mixing:
  rms(total) = 0.64206E+00    rms(broyden)= 0.64164E+00
  rms(prec ) = 0.64949E+00
  weight for this iteration     100.00

 eigenvalues of (default mixing * dielectric matrix)
  average eigenvalue GAMMA=   2.0312
  7.7754  2.5684  2.0433  1.0071  0.7407  0.7407  0.7611  0.6129

 Free energy of the ion-electron system (eV)
  ---------------------------------------------------
  alpha Z        PSCENC =       131.99278517
  Ewald energy   TEWEN  =    183373.75247824
  -Hartree energ DENC   =   -197052.93774929
  -exchange      EXHF   =         0.00000000
  -V(xc)+E(xc)   XCENC  =      1547.54703907
  PAW double counting   =     47006.75957329   -47074.22043542
  entropy T*S    EENTRO =        -0.02222894
  eigenvalues    EBANDS =     -4986.11131116
  atomic energy  EATOM  =     16044.78385898
  Solvation  Ediel_sol  =         0.00000000
  ---------------------------------------------------
  free energy    TOTEN  =     -1008.45599005 eV

  energy without entropy =    -1008.43376111  energy(sigma->0) =    -1008.44487558


--------------------------------------------------------------------------------------------------------




--------------------------------------- Iteration      1(  14)  ---------------------------------------


    POTLOK:  cpu time    0.2298: real time    0.2308
    SETDIJ:  cpu time    0.0217: real time    0.0218
     EDDAV:  cpu time   34.4952: real time   34.6727
       DOS:  cpu time    0.0038: real time    0.0039
    CHARGE:  cpu time    0.7842: real time    0.7882
    MIXING:  cpu time    0.0129: real time    0.0130
    --------------------------------------------
      LOOP:  cpu time   35.5477: real time   35.7303

 eigenvalue-minimisations  :  7850
 total energy-change (2. order) :-0.9006530E+01  (-0.7966138E+00)
 number of electron     444.9999402 magnetization      38.2658291
 augmentation part       10.5768812 magnetization      36.2221630

 Broyden mixing:
  rms(total) = 0.53353E+00    rms(broyden)= 0.53315E+00
  rms(prec ) = 0.53828E+00
  weight for this iteration     100.00

 eigenvalues of (default mixing * dielectric matrix)
  average eigenvalue GAMMA=   2.1044
  9.5054  2.4293  2.4293  1.0553  0.8933  0.6606  0.6606  0.7029  0.6034

 Free energy of the ion-electron system (eV)
  ---------------------------------------------------
  alpha Z        PSCENC =       131.99278517
  Ewald energy   TEWEN  =    183373.75247824
  -Hartree energ DENC   =   -197039.65095283
  -exchange      EXHF   =         0.00000000
  -V(xc)+E(xc)   XCENC  =      1538.95119979
  PAW double counting   =     46187.19447698   -46254.96936680
  entropy T*S    EENTRO =        -0.03442182
  eigenvalues    EBANDS =     -4999.48257784
  atomic energy  EATOM  =     16044.78385898
  Solvation  Ediel_sol  =         0.00000000
  ---------------------------------------------------
  free energy    TOTEN  =     -1017.46252013 eV

  energy without entropy =    -1017.42809831  energy(sigma->0) =    -1017.44530922


--------------------------------------------------------------------------------------------------------




--------------------------------------- Iteration      1(  15)  ---------------------------------------


    POTLOK:  cpu time    0.2125: real time    0.2135
    SETDIJ:  cpu time    0.0223: real time    0.0224
     EDDAV:  cpu time   34.7842: real time   34.9852
       DOS:  cpu time    0.0052: real time    0.0053
    CHARGE:  cpu time    0.8128: real time    0.8167
    MIXING:  cpu time    0.0122: real time    0.0123
    --------------------------------------------
      LOOP:  cpu time   35.8492: real time   36.0554

 eigenvalue-minimisations  :  7880
 total energy-change (2. order) :-0.3592212E+01  (-0.8248943E-01)
 number of electron     444.9999403 magnetization      32.3909251
 augmentation part       10.5691397 magnetization      30.2627871

 Broyden mixing:
  rms(total) = 0.45215E+00    rms(broyden)= 0.45210E+00
  rms(prec ) = 0.45397E+00
  weight for this iteration     100.00

 eigenvalues of (default mixing * dielectric matrix)
  average eigenvalue GAMMA=   2.1160
 10.1925  2.5725  2.5725  1.1781  1.1781  0.8538  0.6590  0.6590  0.6861  0.6087

 Free energy of the ion-electron system (eV)
  ---------------------------------------------------
  alpha Z        PSCENC =       131.99278517
  Ewald energy   TEWEN  =    183373.75247824
  -Hartree energ DENC   =   -197006.53575330
  -exchange      EXHF   =         0.00000000
  -V(xc)+E(xc)   XCENC  =      1535.23580247
  PAW double counting   =     46212.33630654   -46280.31976190
  entropy T*S    EENTRO =        -0.05068064
  eigenvalues    EBANDS =     -5032.24976817
  atomic energy  EATOM  =     16044.78385898
  Solvation  Ediel_sol  =         0.00000000
  ---------------------------------------------------
  free energy    TOTEN  =     -1021.05473260 eV

  energy without entropy =    -1021.00405196  energy(sigma->0) =    -1021.02939228


--------------------------------------------------------------------------------------------------------




--------------------------------------- Iteration      1(  16)  ---------------------------------------


    POTLOK:  cpu time    0.2122: real time    0.2132
    SETDIJ:  cpu time    0.0206: real time    0.0206
     EDDAV:  cpu time   33.8842: real time   34.0603
       DOS:  cpu time    0.0011: real time    0.0011
    CHARGE:  cpu time    0.8054: real time    0.8094
    MIXING:  cpu time    0.0114: real time    0.0114
    --------------------------------------------
      LOOP:  cpu time   34.9349: real time   35.1161

 eigenvalue-minimisations  :  7700
 total energy-change (2. order) :-0.3547106E+01  (-0.4605277E-01)
 number of electron     444.9999403 magnetization      24.1823059
 augmentation part       10.5669727 magnetization      22.0938036

 Broyden mixing:
  rms(total) = 0.38516E+00    rms(broyden)= 0.38512E+00
  rms(prec ) = 0.38695E+00
  weight for this iteration     100.00

 eigenvalues of (default mixing * dielectric matrix)
  average eigenvalue GAMMA=   2.1554
 10.8542  2.7890  2.7890  1.9245  0.9766  0.9766  0.6645  0.6645  0.7835  0.6744
  0.6129

 Free energy of the ion-electron system (eV)
  ---------------------------------------------------
  alpha Z        PSCENC =       131.99278517
  Ewald energy   TEWEN  =    183373.75247824
  -Hartree energ DENC   =   -196933.80784623
  -exchange      EXHF   =         0.00000000
  -V(xc)+E(xc)   XCENC  =      1531.14118900
  PAW double counting   =     46378.60428096   -46446.70658552
  entropy T*S    EENTRO =        -0.04436449
  eigenvalues    EBANDS =     -5104.31763438
  atomic energy  EATOM  =     16044.78385898
  Solvation  Ediel_sol  =         0.00000000
  ---------------------------------------------------
  free energy    TOTEN  =     -1024.60183827 eV

  energy without entropy =    -1024.55747378  energy(sigma->0) =    -1024.57965602


--------------------------------------------------------------------------------------------------------




--------------------------------------- Iteration      1(  17)  ---------------------------------------


    POTLOK:  cpu time    0.2109: real time    0.2119
    SETDIJ:  cpu time    0.0214: real time    0.0215
     EDDAV:  cpu time   34.0966: real time   34.2940
       DOS:  cpu time    0.0012: real time    0.0012
    CHARGE:  cpu time    0.7969: real time    0.8017
    MIXING:  cpu time    0.0157: real time    0.0158
    --------------------------------------------
      LOOP:  cpu time   35.1427: real time   35.3461

 eigenvalue-minimisations  :  7730
 total energy-change (2. order) :-0.3444642E+01  (-0.1168683E+00)
 number of electron     444.9999403 magnetization      18.5554166
 augmentation part       10.5753540 magnetization      16.6057351

 Broyden mixing:
  rms(total) = 0.33251E+00    rms(broyden)= 0.33227E+00
  rms(prec ) = 0.33757E+00
  weight for this iteration     100.00

 eigenvalues of (default mixing * dielectric matrix)
  average eigenvalue GAMMA=   2.1947
 11.4711  3.8418  2.3897  2.3897  1.0244  1.0244  0.9008  0.6394  0.6394  0.7622
  0.6438  0.6095

 Free energy of the ion-electron system (eV)
  ---------------------------------------------------
  alpha Z        PSCENC =       131.99278517
  Ewald energy   TEWEN  =    183373.75247824
  -Hartree energ DENC   =   -196830.94821579
  -exchange      EXHF   =         0.00000000
  -V(xc)+E(xc)   XCENC  =      1526.51921358
  PAW double counting   =     46409.18799287   -46477.16688114
  entropy T*S    EENTRO =        -0.03524297
  eigenvalues    EBANDS =     -5206.13246904
  atomic energy  EATOM  =     16044.78385898
  Solvation  Ediel_sol  =         0.00000000
  ---------------------------------------------------
  free energy    TOTEN  =     -1028.04648010 eV

  energy without entropy =    -1028.01123713  energy(sigma->0) =    -1028.02885862


--------------------------------------------------------------------------------------------------------




--------------------------------------- Iteration      1(  18)  ---------------------------------------


    POTLOK:  cpu time    0.2130: real time    0.2140
    SETDIJ:  cpu time    0.0215: real time    0.0216
     EDDAV:  cpu time   34.3393: real time   34.5177
       DOS:  cpu time    0.0011: real time    0.0011
    CHARGE:  cpu time    0.7571: real time    0.7606
    MIXING:  cpu time    0.0112: real time    0.0113
    --------------------------------------------
      LOOP:  cpu time   35.3433: real time   35.5264

 eigenvalue-minimisations  :  7810
 total energy-change (2. order) :-0.9368555E+00  (-0.3124521E-01)
 number of electron     444.9999403 magnetization      10.4684354
 augmentation part       10.5785925 magnetization       8.3655128

 Broyden mixing:
  rms(total) = 0.23530E+00    rms(broyden)= 0.23520E+00
  rms(prec ) = 0.23652E+00
  weight for this iteration     100.00

 eigenvalues of (default mixing * dielectric matrix)
  average eigenvalue GAMMA=   2.3499
 12.4487  5.6887  2.4851  2.4851  1.3873  0.9145  0.9145  0.9382  0.6349  0.6349
  0.7661  0.6388  0.6119

 Free energy of the ion-electron system (eV)
  ---------------------------------------------------
  alpha Z        PSCENC =       131.99278517
  Ewald energy   TEWEN  =    183373.75247824
  -Hartree energ DENC   =   -196770.00184322
  -exchange      EXHF   =         0.00000000
  -V(xc)+E(xc)   XCENC  =      1525.11470285
  PAW double counting   =     46537.65865186   -46605.56662771
  entropy T*S    EENTRO =        -0.04919201
  eigenvalues    EBANDS =     -5266.66814972
  atomic energy  EATOM  =     16044.78385898
  Solvation  Ediel_sol  =         0.00000000
  ---------------------------------------------------
  free energy    TOTEN  =     -1028.98333556 eV

  energy without entropy =    -1028.93414355  energy(sigma->0) =    -1028.95873955


--------------------------------------------------------------------------------------------------------




--------------------------------------- Iteration      1(  19)  ---------------------------------------


    POTLOK:  cpu time    0.2223: real time    0.2233
    SETDIJ:  cpu time    0.0212: real time    0.0214
     EDDAV:  cpu time   33.4062: real time   33.5865
       DOS:  cpu time    0.0036: real time    0.0036
    CHARGE:  cpu time    0.7870: real time    0.7912
    MIXING:  cpu time    0.0097: real time    0.0098
    --------------------------------------------
      LOOP:  cpu time   34.4500: real time   34.6357

 eigenvalue-minimisations  :  7550
 total energy-change (2. order) :-0.2354564E+01  (-0.2315201E-01)
 number of electron     444.9999403 magnetization       5.6357590
 augmentation part       10.5777137 magnetization       3.5952471

 Broyden mixing:
  rms(total) = 0.14524E+00    rms(broyden)= 0.14522E+00
  rms(prec ) = 0.14735E+00
  weight for this iteration     100.00

 eigenvalues of (default mixing * dielectric matrix)
  average eigenvalue GAMMA=   2.6411
 15.0979  7.7594  2.6246  2.6246  1.9190  1.0059  1.0059  0.6358  0.6358  0.8221
  0.8221  0.7671  0.6154  0.6404

 Free energy of the ion-electron system (eV)
  ---------------------------------------------------
  alpha Z        PSCENC =       131.99278517
  Ewald energy   TEWEN  =    183373.75247824
  -Hartree energ DENC   =   -196715.70433172
  -exchange      EXHF   =         0.00000000
  -V(xc)+E(xc)   XCENC  =      1522.99717849
  PAW double counting   =     46722.34219093   -46790.26608000
  entropy T*S    EENTRO =        -0.04786890
  eigenvalues    EBANDS =     -5321.18811117
  atomic energy  EATOM  =     16044.78385898
  Solvation  Ediel_sol  =         0.00000000
  ---------------------------------------------------
  free energy    TOTEN  =     -1031.33789997 eV

  energy without entropy =    -1031.29003106  energy(sigma->0) =    -1031.31396551


--------------------------------------------------------------------------------------------------------




--------------------------------------- Iteration      1(  20)  ---------------------------------------


    POTLOK:  cpu time    0.2182: real time    0.2192
    SETDIJ:  cpu time    0.0214: real time    0.0215
     EDDAV:  cpu time   34.6696: real time   34.8689
       DOS:  cpu time    0.0011: real time    0.0011
    CHARGE:  cpu time    0.7969: real time    0.8012
    MIXING:  cpu time    0.0133: real time    0.0133
    --------------------------------------------
      LOOP:  cpu time   35.7204: real time   35.9253

 eigenvalue-minimisations  :  7910
 total energy-change (2. order) :-0.3471302E+01  (-0.1441432E-01)
 number of electron     444.9999403 magnetization       3.5768394
 augmentation part       10.5750731 magnetization       1.5699143

 Broyden mixing:
  rms(total) = 0.85550E-01    rms(broyden)= 0.85520E-01
  rms(prec ) = 0.87810E-01
  weight for this iteration     100.00

 eigenvalues of (default mixing * dielectric matrix)
  average eigenvalue GAMMA=   2.8486
 18.2503  8.7768  2.7313  2.7313  2.2400  1.2138  1.0089  0.8489  0.8489  0.6333
  0.6333  0.8473  0.7166  0.6213  0.6263

[...]
   0.332E+03 -.412E+00 0.349E+03   -.332E+03 0.631E+00 -.349E+03   0.637E-01 -.219E+00 0.164E+00   -.906E-04 0.104E-04 0.949E-05
   -.152E+03 -.194E-01 0.371E+03   0.152E+03 0.226E-01 -.371E+03   -.110E-01 0.920E-04 -.169E-01   0.246E-04 -.140E-05 -.941E-04
   0.195E+03 -.647E-01 0.368E+03   -.195E+03 0.719E-01 -.368E+03   0.395E-01 0.429E-02 0.194E-01   -.365E-04 0.178E-06 -.479E-04
   -.279E+03 -.418E-01 0.349E+03   0.279E+03 0.470E-01 -.349E+03   -.158E-01 0.277E-02 -.308E-01   0.125E-03 0.183E-06 -.831E-04
   0.521E+03 -.808E-02 0.327E+03   -.521E+03 0.123E-01 -.329E+03   0.708E+00 -.511E-02 0.219E+01   -.251E-03 0.540E-06 0.141E-03
   -.370E+02 -.225E-01 0.380E+03   0.370E+02 0.207E-01 -.380E+03   0.114E-01 0.147E-02 -.156E-01   -.527E-04 -.207E-06 -.923E-04
   0.393E+02 -.729E-01 -.378E+03   -.393E+02 0.627E-01 0.378E+03   -.260E-02 0.666E-02 0.315E-01   -.625E-05 0.207E-05 0.130E-03
   -.531E+03 -.415E-01 -.304E+03   0.531E+03 0.450E-01 0.304E+03   -.472E+00 0.550E-02 0.357E-01   0.185E-03 0.573E-06 0.375E-04
   0.278E+03 -.319E+00 -.342E+03   -.278E+03 0.248E+00 0.342E+03   0.491E-02 0.655E-01 0.389E-02   -.191E-03 -.955E-06 0.116E-03
   -.194E+03 0.939E-02 -.373E+03   0.194E+03 -.118E-01 0.373E+03   -.310E-01 0.129E-02 0.251E-01   0.304E-04 0.484E-06 0.144E-03
   0.154E+03 0.354E-01 -.366E+03   -.154E+03 -.384E-01 0.366E+03   0.109E-01 -.238E-02 0.276E-01   -.548E-04 -.692E-07 0.124E-03
   -.335E+03 -.532E-01 -.352E+03   0.335E+03 0.609E-01 0.352E+03   -.114E+00 0.262E-02 0.240E-01   0.697E-04 -.259E-06 0.118E-03
   0.428E+03 -.550E-01 -.297E+03   -.428E+03 0.578E-01 0.297E+03   0.370E+00 0.394E-03 -.246E-01   -.372E-03 0.883E-06 0.655E-04
   -.742E+02 0.476E-01 -.381E+03   0.742E+02 -.510E-01 0.381E+03   -.126E-01 -.314E-02 0.165E-01   0.995E-05 0.177E-06 0.144E-03
   0.394E+02 -.266E-01 -.379E+03   -.394E+02 0.236E-01 0.379E+03   -.253E-01 -.159E-02 0.243E-01   -.972E-05 -.304E-06 0.130E-03
   -.531E+03 -.422E-02 -.304E+03   0.531E+03 0.951E-02 0.304E+03   -.466E+00 -.431E-02 0.293E-01   0.184E-03 -.221E-06 0.371E-04
   0.279E+03 -.283E-01 -.343E+03   -.278E+03 0.330E-01 0.343E+03   -.312E+00 0.225E-02 0.285E-01   -.199E-03 0.459E-07 0.115E-03
   -.194E+03 -.566E-01 -.372E+03   0.194E+03 0.620E-01 0.372E+03   -.383E-01 0.452E-02 0.275E-01   0.305E-04 0.583E-07 0.143E-03
   0.154E+03 -.113E+00 -.367E+03   -.154E+03 0.995E-01 0.367E+03   -.268E-01 0.289E-01 0.193E-01   -.532E-04 -.101E-05 0.124E-03
   -.335E+03 0.659E-01 -.352E+03   0.335E+03 -.743E-01 0.352E+03   -.112E+00 -.552E-03 0.221E-01   0.689E-04 0.198E-05 0.118E-03
   0.425E+03 0.175E+01 -.305E+03   -.425E+03 -.242E+01 0.306E+03   -.115E+00 0.656E+00 -.969E+00   -.374E-03 0.717E-05 0.374E-04
   -.742E+02 -.434E-01 -.380E+03   0.742E+02 0.394E-01 0.380E+03   -.109E-01 0.721E-02 0.207E-01   0.783E-05 0.176E-05 0.144E-03
   0.393E+02 0.973E-01 -.378E+03   -.393E+02 -.848E-01 0.378E+03   -.126E-01 -.619E-02 0.296E-01   -.600E-05 -.186E-05 0.130E-03
   -.531E+03 0.384E-01 -.304E+03   0.531E+03 -.434E-01 0.304E+03   -.464E+00 -.582E-03 0.309E-01   0.185E-03 -.294E-06 0.373E-04
   0.278E+03 0.366E+00 -.342E+03   -.278E+03 -.300E+00 0.342E+03   0.770E-02 -.689E-01 0.198E-02   -.190E-03 0.773E-06 0.117E-03
   -.194E+03 0.584E-01 -.373E+03   0.194E+03 -.621E-01 0.373E+03   -.378E-01 -.463E-02 0.204E-01   0.304E-04 -.438E-06 0.144E-03
   0.154E+03 0.633E-01 -.367E+03   -.154E+03 -.439E-01 0.367E+03   -.221E-01 -.202E-01 0.248E-01   -.535E-04 0.120E-05 0.124E-03
   -.335E+03 -.941E-02 -.352E+03   0.335E+03 0.114E-01 0.352E+03   -.114E+00 -.397E-02 0.259E-01   0.694E-04 -.184E-05 0.118E-03
   0.425E+03 -.166E+01 -.305E+03   -.425E+03 0.233E+01 0.306E+03   -.109E+00 -.661E+00 -.964E+00   -.375E-03 -.771E-05 0.376E-04
   -.742E+02 0.245E-01 -.380E+03   0.743E+02 -.204E-01 0.380E+03   -.110E-01 -.583E-02 0.250E-01   0.790E-05 -.189E-05 0.144E-03
   0.545E+03 -.589E-01 -.248E+03   -.546E+03 0.615E-01 0.248E+03   0.738E+00 0.522E-02 0.148E-03   -.449E-03 -.771E-08 -.664E-05
   0.546E+03 -.127E+01 -.261E+03   -.547E+03 0.206E+01 0.263E+03   0.111E+01 -.788E+00 -.130E+01   -.436E-03 0.242E-04 -.520E-04
   0.546E+03 0.132E+01 -.261E+03   -.547E+03 -.211E+01 0.263E+03   0.111E+01 0.786E+00 -.130E+01   -.436E-03 -.241E-04 -.519E-04
   -.557E+03 -.706E-01 0.252E+03   0.557E+03 0.748E-01 -.252E+03   -.402E+00 0.659E-02 -.328E-01   0.217E-03 -.134E-06 0.161E-04
   -.557E+03 0.526E-01 0.252E+03   0.557E+03 -.569E-01 -.252E+03   -.407E+00 -.661E-02 -.347E-01   0.218E-03 -.131E-05 0.165E-04
   -.557E+03 0.139E-01 0.252E+03   0.557E+03 -.136E-01 -.252E+03   -.406E+00 0.639E-03 -.368E-01   0.218E-03 0.143E-05 0.163E-04
   0.647E+03 -.808E+00 -.223E+03   -.649E+03 0.122E+01 0.223E+03   0.132E+01 -.401E+00 -.501E-02   -.146E-03 -.144E-05 -.690E-04
   0.648E+03 0.799E-02 -.228E+03   -.649E+03 -.110E-01 0.230E+03   0.177E+01 -.627E-02 -.126E+01   -.144E-03 -.239E-06 -.110E-03
   0.647E+03 0.814E+00 -.223E+03   -.649E+03 -.122E+01 0.223E+03   0.132E+01 0.408E+00 -.783E-02   -.146E-03 0.164E-05 -.694E-04
   -.657E+03 -.443E-01 0.222E+03   0.658E+03 0.465E-01 -.222E+03   -.107E+01 0.623E-02 -.726E-02   0.151E-03 0.929E-06 0.601E-04
   -.657E+03 0.976E-02 0.222E+03   0.658E+03 -.115E-01 -.222E+03   -.107E+01 -.546E-02 -.593E-02   0.151E-03 -.683E-07 0.605E-04
   -.657E+03 0.397E-01 0.222E+03   0.658E+03 -.407E-01 -.222E+03   -.108E+01 -.148E-02 -.726E-02   0.150E-03 -.848E-06 0.601E-04
   0.198E+03 -.353E-01 0.581E+02   -.203E+03 0.371E-01 -.582E+02   0.565E+01 -.834E-02 0.659E-01   -.277E-04 0.116E-06 0.676E-04
   0.197E+03 -.433E+00 0.611E+02   -.203E+03 0.473E+00 -.614E+02   0.562E+01 -.392E-01 0.234E+00   -.264E-04 -.217E-05 0.705E-04
   0.197E+03 0.463E+00 0.611E+02   -.203E+03 -.505E+00 -.614E+02   0.562E+01 0.463E-01 0.232E+00   -.265E-04 0.208E-05 0.706E-04
   -.200E+03 -.300E-01 -.573E+02   0.206E+03 0.314E-01 0.572E+02   -.568E+01 -.709E-02 0.902E-01   -.159E-04 0.751E-08 -.296E-04
   -.200E+03 0.115E-01 -.573E+02   0.206E+03 -.119E-01 0.573E+02   -.568E+01 0.157E-02 0.876E-01   -.158E-04 -.226E-06 -.296E-04
   -.200E+03 0.261E-01 -.573E+02   0.206E+03 -.272E-01 0.572E+02   -.568E+01 0.732E-02 0.909E-01   -.158E-04 0.208E-06 -.296E-04
   0.196E+03 -.167E+00 -.452E+02   -.202E+03 0.188E+00 0.453E+02   0.565E+01 -.225E-01 -.139E+00   0.172E-03 -.540E-06 -.330E-04
   0.196E+03 0.205E-01 -.454E+02   -.202E+03 -.216E-01 0.455E+02   0.566E+01 0.497E-02 -.131E+00   0.163E-03 0.947E-08 -.376E-04
   0.196E+03 0.147E+00 -.451E+02   -.202E+03 -.167E+00 0.453E+02   0.565E+01 0.175E-01 -.136E+00   0.172E-03 0.513E-06 -.330E-04
   -.198E+03 -.121E-01 0.427E+02   0.204E+03 0.125E-01 -.427E+02   -.567E+01 -.166E-02 0.678E-02   -.519E-04 0.177E-06 0.311E-04
   -.198E+03 0.190E-01 0.427E+02   0.204E+03 -.203E-01 -.427E+02   -.567E+01 0.435E-02 0.767E-02   -.523E-04 -.339E-07 0.312E-04
   -.198E+03 -.838E-02 0.427E+02   0.204E+03 0.934E-02 -.427E+02   -.568E+01 -.312E-02 0.823E-02   -.519E-04 -.145E-06 0.311E-04
   0.137E+03 0.455E-02 0.956E+01   -.137E+03 -.483E-02 -.961E+01   0.336E+00 0.119E-02 0.149E-01   -.564E-04 -.167E-07 0.505E-04
 -----------------------------------------------------------------------------------------------
   -.270E+01 -.208E-03 0.138E+01   -.122E-11 -.373E-13 -.361E-12   0.281E+01 -.923E-03 -.136E+01   -.372E-02 0.314E-07 0.358E-02


 POSITION                                       TOTAL-FORCE (eV/Angst)
 -----------------------------------------------------------------------------------
     18.54143      6.12952     12.14419         0.007563     -0.013580     -0.014908
     27.09946      6.12807     15.66864         0.007065      0.019965     -0.004810
     14.26314      6.12905     12.07051         0.004938      0.009232      0.012163
     22.82227      6.12931     12.14278        -0.011384     -0.004201      0.006347
     16.40245      4.90362     12.11955        -0.006275      0.000433     -0.003647
     24.96444      4.90337     12.13158        -0.000210     -0.000339      0.000426
     12.12361      4.90570     12.00315         0.014195     -0.013395     -0.003103
     20.68125      4.90363     12.14875         0.010446     -0.003756      0.009084
     18.54126      1.22582     12.14064         0.008526      0.014282      0.006111
     27.09930      1.22535     15.66880         0.016379     -0.016739     -0.005587
     14.26322      1.22564     12.06180         0.003041     -0.015556     -0.002755
     22.82216      1.22609     12.14502        -0.007956     -0.002619     -0.008241
     16.40213      0.00028     12.11863         0.004585     -0.003129     -0.000478
     24.96422      0.00023     12.13110         0.016908      0.002944      0.001051
     12.12367      7.35282     12.00293         0.015560     -0.005842     -0.002457
     20.68112      0.00044     12.14839         0.018844     -0.004140      0.009311
     18.54138      3.67770     12.14105         0.006101     -0.001381      0.006606
     27.09923      3.67691     15.66848         0.012682     -0.006799     -0.000741
     14.26321      3.67822     12.06199         0.000878      0.001720     -0.001260
     22.82194      3.67760     12.14544         0.006624      0.003664     -0.009744
     16.40208      2.45179     12.11334        -0.006943      0.004547      0.011460
     24.96427      2.45196     12.13182         0.006346     -0.005051      0.009523
     12.12712      2.45153     11.96804         0.011242      0.020404     -0.006882
     20.68107      2.45173     12.14852         0.013929      0.005575     -0.001868
      9.99787      6.12878     11.97102        -0.000513      0.025438     -0.002214
     18.55387      6.12871     15.65888        -0.021138     -0.009226     -0.000757
     14.27165      6.12853     15.71378         0.012839     -0.001168     -0.002054
     22.83384      6.12823     15.66884        -0.011424      0.013695     -0.004320
     16.41294      4.90306     15.67622        -0.002359     -0.010117      0.000670
     24.97351      4.90288     15.67763        -0.016140     -0.019259     -0.004911
     12.12952      4.90699     15.77605         0.000541      0.006778     -0.004124
     20.69344      4.90290     15.65842         0.010013     -0.008903     -0.000824
      9.99536      1.22219     11.93895        -0.003463     -0.010797      0.008521
     18.55355      1.22523     15.66006        -0.018132      0.007927     -0.000975
     14.27075      1.22502     15.71840         0.016690     -0.001966     -0.006470
     22.83370      1.22552     15.66719        -0.006498     -0.016668      0.001304
     16.41293      7.35406     15.67675        -0.005710     -0.004440      0.000052
     24.97336      7.35408     15.67758        -0.009593      0.000736     -0.003477
     12.12993      7.34995     15.77626        -0.020165      0.004974     -0.003334
     20.69356      7.35418     15.65895         0.008786      0.003497     -0.001939
      9.99546      3.68152     11.93909        -0.000943     -0.009342      0.007092
     18.55354      3.67689     15.65934        -0.013678      0.002157      0.001832
     14.27097      3.67730     15.71784        -0.000418      0.002530     -0.004578
     22.83357      3.67677     15.66704         0.003218      0.004781      0.001664
     16.41240      2.45086     15.68023        -0.008421      0.010059     -0.013616
     24.97339      2.45086     15.67759        -0.013064      0.014136     -0.007894
     12.12832      2.45140     15.79097         0.001084     -0.004429     -0.000436
     20.69329      2.45092     15.65727         0.006172      0.009798      0.003199
     17.11511      6.12942     12.13040        -0.010363     -0.005245      0.004052
     25.67398      6.12902     12.12693        -0.006172      0.008073     -0.004458
     12.83353      6.12903     12.03090        -0.002815      0.010852     -0.006547
     21.39453      6.12945     12.14905        -0.002393     -0.008243     -0.018743
     14.97507      4.90384     12.08839         0.004096     -0.006710     -0.007467
     23.53449      4.90349     12.13891        -0.003600     -0.005729      0.017890
     10.68046      4.90849     11.97129        -0.006424     -0.004485      0.000411
     19.25428      4.90359     12.14549         0.010852      0.000924      0.008624
     17.11478      1.22599     12.12615        -0.010462      0.001778     -0.001689
     25.67389      1.22616     12.12619        -0.003605     -0.005900      0.005070
     12.83351      1.22358     12.00899        -0.003406     -0.012811      0.007460
     21.39446      1.22601     12.14772        -0.005372      0.006708      0.006414
     14.97519      7.35462     12.08796        -0.017591     -0.001002     -0.009718
     23.53448      0.00036     12.13888         0.000475     -0.000622      0.013519
     10.68061      7.34963     11.97121        -0.012475      0.002190     -0.000543
     19.25447      0.00035     12.14549         0.001401      0.000947      0.004616
     17.11492      3.67768     12.12724        -0.014882      0.001099     -0.007742
     25.67394      3.67765     12.12714         0.003257     -0.000031     -0.002055
     12.83346      3.68017     12.00921        -0.006185      0.000678      0.006157
     21.39448      3.67761     12.14843        -0.015221      0.003317      0.001391
     14.97427      2.45172     12.07934         0.003023      0.011549      0.005126
     23.53424      2.45177     12.14215         0.006765      0.007976     -0.008530
     10.67936      2.45181     11.89901        -0.018029     -0.000864     -0.022123
     19.25409      2.45176     12.14408         0.010020     -0.000231     -0.001269
     17.84010      7.35424     15.66302        -0.005743     -0.003559      0.006905
     26.41496      7.35390     15.67472         0.004947      0.009018     -0.004530
     13.55858      7.35324     15.73397         0.010326     -0.000801     -0.004044
     22.12105      7.35420     15.66456         0.015330     -0.001067      0.002185
     15.69967      6.12858     15.68600         0.006207     -0.005412     -0.001018
     24.26398      6.12826     15.67624        -0.005714      0.010426     -0.003494
     11.41857      6.12852     15.79635        -0.002876      0.003137     -0.000179
     19.98052      6.12866     15.65812         0.002245     -0.006584     -0.002635
     17.84017      2.45112     15.66502        -0.019623     -0.004593     -0.002992
     26.41490      2.45103     15.67505         0.011827      0.000991     -0.009012
     13.56077      2.45113     15.73760        -0.004180      0.006981     -0.000944
     22.12108      2.45093     15.66268        -0.001997      0.010051      0.005202
     15.69904      1.22488     15.69001         0.005662      0.015624     -0.009074
     24.26389      1.22536     15.67563        -0.002995     -0.008963     -0.003296
     11.41806      1.22098     15.81340        -0.008656     -0.008343      0.000221
     19.98016      1.22520     15.65772         0.010973      0.003216     -0.001465
     17.84043      4.90280     15.66259        -0.020749      0.006340      0.005746
     26.41494      4.90265     15.67483         0.010257     -0.005595     -0.007746
     13.55848      4.90388     15.73377         0.011486     -0.007623     -0.005540
     22.12123      4.90275     15.66456        -0.005776     -0.008341     -0.001012
     15.69888      3.67708     15.68921         0.026159     -0.000712     -0.005400
     24.26395      3.67689     15.67537        -0.005032     -0.002041     -0.000217
     11.41772      3.68170     15.81303        -0.001981     -0.004324      0.002364
     19.98016      3.67695     15.65692         0.015189     -0.001724      0.002363
      9.97411      6.12845     15.83816         0.001686      0.007852      0.004090
      9.96860      3.68454     15.86520         0.005289     -0.003305      0.007314
      9.96870      1.21803     15.86514         0.008494     -0.000241      0.009251
     27.11563      6.12896     12.11986         0.011204      0.010850      0.007973
     27.11589      3.67786     12.11992         0.003668     -0.010998      0.005578
     27.11568      1.22602     12.11958         0.010799      0.000987      0.004512
      9.28854      4.90832     15.86075        -0.010099      0.007661      0.007790
      9.28443      2.45134     15.86927        -0.023305     -0.009301      0.006881
      9.28846      7.34875     15.86069        -0.014980     -0.000476      0.006683
     27.80066      0.00008     12.11781         0.009880      0.008429      0.005867
     27.80059      2.45194     12.11766         0.003258     -0.007199      0.007316
     27.80069      4.90352     12.11788        -0.000462     -0.002446      0.006342
      8.90503      6.13011     11.95714         0.003715     -0.006594     -0.004397
      8.90247      3.68319     11.90050         0.000308      0.001603     -0.006600
      8.90212      1.21938     11.90075         0.007703      0.004134     -0.007122
     28.19227      6.12919     15.65265         0.001982     -0.005792      0.002031
     28.19219      3.67668     15.65293        -0.002933      0.001137      0.000896
     28.19246      1.22421     15.65268        -0.009105      0.006290      0.002412
      8.19630      4.90997     15.88617        -0.005996     -0.003354      0.012694
      8.19226      2.45055     15.88948        -0.004401      0.003902      0.015859
      8.19577      7.34790     15.88568         0.008576     -0.000459      0.013007
     28.89436      0.00032     12.11769        -0.013250     -0.001296     -0.007102
     28.89386      2.45124     12.11739         0.000891      0.003165     -0.006804
     28.89373      4.90403     12.11748         0.008006     -0.002213     -0.007066
     10.48271      2.45102     14.00076        -0.007877      0.000907     -0.007650
 -----------------------------------------------------------------------------------
    total drift:                                0.103063     -0.001131      0.026394


--------------------------------------------------------------------------------------------------------



  FREE ENERGIE OF THE ION-ELECTRON SYSTEM (eV)
  ---------------------------------------------------
  free  energy   TOTEN  =     -1043.55091096 eV

  energy  without entropy=    -1043.50227357  energy(sigma->0) =    -1043.52659227



--------------------------------------------------------------------------------------------------------


    POTLOK:  cpu time    0.2696: real time    0.2711


--------------------------------------------------------------------------------------------------------


 stress matrix after NEB project (eV)
    -11.36997      0.01512     -0.45192
      0.01512     27.62814     -0.00504
     -0.45192     -0.00504    -15.76053
  FORCES: max atom, RMS     0.028552    0.014504
  FORCE total and by dimension    0.159543    0.026159
  Stress total and by dimension   33.784516   27.628141
 writing wavefunctions
     LOOP+:  cpu time 1302.1330: real time 1310.2913
    4ORBIT:  cpu time    0.0000: real time    0.0000

 total amount of memory used by VASP MPI-rank0   280957. kBytes
=======================================================================

   base      :      30000. kBytes
   nonlr-proj:       4980. kBytes
   fftplans  :      14214. kBytes
   grid      :      37253. kBytes
   one-center:        190. kBytes
   wavefun   :     194320. kBytes

  
  
 General timing and accounting informations for this job:
 ========================================================
  
                  Total CPU time used (sec):     1336.902
                            User time (sec):     1328.491
                          System time (sec):        8.412
                         Elapsed time (sec):     1348.100
  
                   Maximum memory used (kb):      469076.
                   Average memory used (kb):           0.
  
                          Minor page faults:       892307
                          Major page faults:            2
                 Voluntary context switches:        10313
