 vasp.5.4.4.18Apr17-6-g9f103f2a35 (build Sep 10 2024 21:01:58) complex           
 executed on             LinuxGNU date 2025.04.14  14:39:48
 running on   40 total cores
 distrk:  each k-point on   40 cores,    1 groups
 distr:  one band on NCORES_PER_BAND=   4 cores,   10 groups


--------------------------------------------------------------------------------------------------------


 INCAR:
 POTCAR:    PAW_PBE C 08Apr2002                   
 POTCAR:    PAW_PBE H 15Jun2001                   
 POTCAR:    PAW_PBE Li 17Jan2003                  
 POTCAR:    PAW_PBE C 08Apr2002                   
   SHA256 =  253f7b50bb8d59471dbedb8285d89021f4a42ed1a2c5d38a03a736e69125dd95 C/
   COPYR  = (c) Copyright 08Apr2002 Georg Kresse                                
   COPYR  = This file is part of the software VASP. Any use, copying, and all ot
   COPYR  = If you do not have a valid VASP license, you may not use, copy or di
   VRHFIN =C: s2p2                                                              
   LEXCH  = PE                                                                  
   EATOM  =   147.1560 eV,   10.8157 Ry                                         
                                                                                
   TITEL  = PAW_PBE C 08Apr2002                                                 
   LULTRA =        F    use ultrasoft PP ?                                      
   IUNSCR =        1    unscreen: 0-lin 1-nonlin 2-no                           
   RPACOR =    1.200    partial core radius                                     
   POMASS =   12.011; ZVAL   =    4.000    mass and valenz                      
   RCORE  =    1.500    outmost cutoff radius                                   
   RWIGS  =    1.630; RWIGS  =    0.863    wigner-seitz radius (au A)           
   ENMAX  =  400.000; ENMIN  =  300.000 eV                                      
   ICORE  =        2    local potential                                         
   LCOR   =        T    correct aug charges                                     
   LPAW   =        T    paw PP                                                  
   EAUG   =  644.873                                                            
   DEXC   =    0.000                                                            
   RMAX   =    1.529    core radius for proj-oper                               
   RAUG   =    1.300    factor for augmentation sphere                          
   RDEP   =    1.501    radius for radial grids                                 
   RDEPT  =    1.300    core radius for aug-charge                              
                                                                                
   Atomic configuration                                                         
    4 entries                                                                   
     n  l   j            E        occ.                                          
     1  0  0.50      -273.3789   2.0000                                         
     2  0  0.50       -13.7508   2.0000                                         
     2  1  0.50        -5.2854   2.0000                                         
     3  2  1.50        -5.4423   0.0000                                         
   Description                                                                  
     l       E           TYP  RCUT    TYP  RCUT                                 
     0    -13.7508458     23  1.200                                             
     0     -8.2022199     23  1.200                                             
     1     -5.2854383     23  1.500                                             
     1     34.0145650     23  1.500                                             
     2     -5.4423304      7  1.500                                             
  local pseudopotential read in
  partial core-charges read in
  partial kinetic energy density read in
  atomic valenz-charges read in
  non local Contribution for L=           0  read in
    real space projection operators read in
  non local Contribution for L=           0  read in
    real space projection operators read in
  non local Contribution for L=           1  read in
    real space projection operators read in
  non local Contribution for L=           1  read in
    real space projection operators read in
    PAW grid and wavefunctions read in

   number of l-projection  operators is LMAX  =           4
   number of lm-projection operators is LMMAX =           8

 POTCAR:    PAW_PBE H 15Jun2001                   
   SHA256 =  030f79b5d3ab3cf0e668861823c8fb652ff669f3e15e46930bd03bfd63a607b6 H/
   COPYR  = (c) Copyright 15Jun2001 Georg Kresse                                
   COPYR  = This file is part of the software VASP. Any use, copying, and all ot
   COPYR  = If you do not have a valid VASP license, you may not use, copy or di
   VRHFIN =H: ultrasoft test                                                    
   LEXCH  = PE                                                                  
   EATOM  =    12.4884 eV,    0.9179 Ry                                         
                                                                                
   TITEL  = PAW_PBE H 15Jun2001                                                 
   LULTRA =        F    use ultrasoft PP ?                                      
   IUNSCR =        0    unscreen: 0-lin 1-nonlin 2-no                           
   RPACOR =    0.000    partial core radius                                     
   POMASS =    1.000; ZVAL   =    1.000    mass and valenz                      
   RCORE  =    1.100    outmost cutoff radius                                   
   RWIGS  =    0.700; RWIGS  =    0.370    wigner-seitz radius (au A)           
   ENMAX  =  250.000; ENMIN  =  200.000 eV                                      
   RCLOC  =    0.701    cutoff for local pot                                    
   LCOR   =        T    correct aug charges                                     
   LPAW   =        T    paw PP                                                  
   EAUG   =  400.000                                                            
   RMAX   =    1.123    core radius for proj-oper                               
   RAUG   =    1.200    factor for augmentation sphere                          
   RDEP   =    1.112    radius for radial grids                                 
   RDEPT  =    0.926    core radius for aug-charge                              
                                                                                
   Atomic configuration                                                         
    2 entries                                                                   
     n  l   j            E        occ.                                          
     1  0  0.50        -6.4927   1.0000                                         
     2  1  0.50        -3.4015   0.0000                                         
   Description                                                                  
     l       E           TYP  RCUT    TYP  RCUT                                 
     0     -6.4927494     23  1.100                                             
     0      6.8029130     23  1.100                                             
     1     -4.0817478     23  1.100                                             
  local pseudopotential read in
  atomic valenz-charges read in
  non local Contribution for L=           0  read in
    real space projection operators read in
  non local Contribution for L=           0  read in
    real space projection operators read in
  non local Contribution for L=           1  read in
    real space projection operators read in
    PAW grid and wavefunctions read in

   number of l-projection  operators is LMAX  =           3
   number of lm-projection operators is LMMAX =           5

 POTCAR:    PAW_PBE Li 17Jan2003                  
   SHA256 =  3d9d9bfd1dd25b20a3b919cb3191e6ef627605783dc2e149b9290ff31c32aa6e Li
   COPYR  = (c) Copyright 17Jan2003 Georg Kresse                                
   COPYR  = This file is part of the software VASP. Any use, copying, and all ot
   COPYR  = If you do not have a valid VASP license, you may not use, copy or di
   VRHFIN =Li: s1p0                                                             
   LEXCH  = PE                                                                  
   EATOM  =     5.3001 eV,    0.3895 Ry                                         
                                                                                
   TITEL  = PAW_PBE Li 17Jan2003                                                
   LULTRA =        F    use ultrasoft PP ?                                      
   IUNSCR =        1    unscreen: 0-lin 1-nonlin 2-no                           
   RPACOR =    1.500    partial core radius                                     
   POMASS =    7.010; ZVAL   =    1.000    mass and valenz                      
   RCORE  =    2.050    outmost cutoff radius                                   
   RWIGS  =    2.600; RWIGS  =    1.376    wigner-seitz radius (au A)           
   ENMAX  =  140.000; ENMIN  =  100.000 eV                                      
   ICORE  =        2    local potential                                         
   LCOR   =        T    correct aug charges                                     
   LPAW   =        T    paw PP                                                  
   EAUG   =  331.638                                                            
   DEXC   =    0.000                                                            
   RMAX   =    2.098    core radius for proj-oper                               
   RAUG   =    1.300    factor for augmentation sphere                          
   RDEP   =    2.094    radius for radial grids                                 
   RDEPT  =    1.810    core radius for aug-charge                              
                                                                                
   Atomic configuration                                                         
    4 entries                                                                   
     n  l   j            E        occ.                                          
     1  0  0.50       -51.8549   2.0000                                         
     2  0  0.50        -2.8742   1.0000                                         
     2  1  0.50        -1.3606   0.0000                                         
     3  2  1.50        -1.3606   0.0000                                         
   Description                                                                  
     l       E           TYP  RCUT    TYP  RCUT                                 
     0     -2.8742052     23  2.050                                             
     0     27.2116520     23  2.050                                             
     1     -1.3605826     23  2.050                                             
     2     -1.3605826     23  2.050                                             
  local pseudopotential read in
  partial core-charges read in
  partial kinetic energy density read in
  atomic valenz-charges read in
  non local Contribution for L=           0  read in
    real space projection operators read in
  non local Contribution for L=           0  read in
    real space projection operators read in
  non local Contribution for L=           1  read in
    real space projection operators read in
    PAW grid and wavefunctions read in

   number of l-projection  operators is LMAX  =           3
   number of lm-projection operators is LMMAX =           5

 Optimization of the real space projectors (new method)

 maximal supplied QI-value         = 25.13
 optimisation between [QCUT,QGAM] = [ 10.05, 20.36] = [ 28.30,116.06] Ry 
 Optimized for a Real-space Cutoff    1.30 Angstroem

   l    n(q)    QCUT    max X(q) W(low)/X(q) W(high)/X(q)  e(spline) 
   0      8    10.053   115.676    0.49E-03    0.72E-03    0.18E-06
   0      8    10.053    87.132    0.49E-03    0.71E-03    0.18E-06
   1      7    10.053     4.429    0.32E-03    0.31E-03    0.18E-06
   1      7    10.053     2.733    0.23E-03    0.19E-03    0.20E-06
 Optimization of the real space projectors (new method)

 maximal supplied QI-value         = 34.20
 optimisation between [QCUT,QGAM] = [  9.92, 20.18] = [ 27.55,114.04] Ry 
 Optimized for a Real-space Cutoff    1.26 Angstroem

   l    n(q)    QCUT    max X(q) W(low)/X(q) W(high)/X(q)  e(spline) 
   0      8     9.919    19.460    0.50E-03    0.23E-03    0.29E-06
   0      8     9.919    12.209    0.48E-03    0.23E-03    0.28E-06
   1      7     9.919     4.655    0.17E-03    0.75E-03    0.30E-06
 Optimization of the real space projectors (new method)

 maximal supplied QI-value         = 18.33
 optimisation between [QCUT,QGAM] = [ 10.08, 20.35] = [ 28.46,115.93] Ry 
 Optimized for a Real-space Cutoff    1.16 Angstroem

   l    n(q)    QCUT    max X(q) W(low)/X(q) W(high)/X(q)  e(spline) 
   0      7    10.082    33.825    0.44E-03    0.14E-03    0.78E-07
   0      7    10.082     8.944    0.33E-03    0.12E-03    0.56E-07
   1      6    10.082     4.214    0.33E-03    0.37E-03    0.39E-07
  PAW_PBE C 08Apr2002                   :
 energy of atom  1       EATOM= -147.1560
 kinetic energy error for atom=    0.0288 (will be added to EATOM!!)
  PAW_PBE H 15Jun2001                   :
 energy of atom  2       EATOM=  -12.4884
 kinetic energy error for atom=    0.0098 (will be added to EATOM!!)
  PAW_PBE Li 17Jan2003                  :
 energy of atom  3       EATOM=   -5.3001
 kinetic energy error for atom=    0.0000 (will be added to EATOM!!)


 POSCAR: C4                                      
  positions in direct lattice
  velocities in cartesian coordinates
 exchange correlation table for  LEXCH =        8
   RHO(1)=    0.500       N(1)  =     2000
   RHO(2)=  100.500       N(2)  =     4000

 VTST: version 3.2, (02/03/18)

 CHAIN: initializing optimizer
 
 OPT: Using VASP Conjugate-Gradient optimizer
 CHAIN: Read ICHAIN            0

 POSCAR: C4                                      
  positions in direct lattice
  velocities in cartesian coordinates



--------------------------------------------------------------------------------------------------------


 ion  position               nearest neighbor table
   1  0.467  0.003  0.436-  28 1.42  25 1.43  93 1.43
   2  0.467  0.503  0.436-  27 1.42  26 1.43  94 1.43
   3  0.434  0.253  0.436-  25 1.42  33 1.42  27 1.43
   4  0.434  0.753  0.436-  26 1.42  34 1.42  28 1.43
   5  0.334  0.003  0.436-  32 1.41  36 1.42  29 1.43
   6  0.334  0.503  0.436-  31 1.41  35 1.42  30 1.43
   7  0.302  0.257  0.436- 115 1.09  31 1.37  29 1.41
   8  0.302  0.756  0.436- 116 1.09  32 1.37  30 1.41
   9  0.401  0.003  0.436-  33 1.42  28 1.42  36 1.43
  10  0.401  0.503  0.436-  34 1.42  27 1.43  35 1.43
  11  0.367  0.253  0.436-  29 1.42  35 1.43  33 1.43
  12  0.367  0.753  0.436-  30 1.42  36 1.43  34 1.43
  13  0.467  0.997  0.564-  45 1.42  40 1.43  86 1.43
  14  0.467  0.497  0.564-  46 1.42  39 1.43  85 1.43
  15  0.434  0.247  0.564-  39 1.42  47 1.42  45 1.43
  16  0.434  0.747  0.564-  40 1.42  48 1.42  46 1.43
  17  0.334  0.997  0.564-  37 1.41  41 1.42  44 1.43
  18  0.334  0.497  0.564-  38 1.41  42 1.42  43 1.43
  19  0.302  0.243  0.564- 117 1.09  37 1.37  43 1.41
  20  0.302  0.744  0.564- 118 1.09  38 1.37  44 1.41
  21  0.401  0.997  0.564-  48 1.42  45 1.43  41 1.43
  22  0.401  0.497  0.564-  47 1.42  46 1.43  42 1.43
  23  0.367  0.247  0.564-  43 1.42  41 1.43  47 1.43
  24  0.367  0.747  0.564-  44 1.42  42 1.43  48 1.43
  25  0.467  0.170  0.436-   3 1.42   1 1.43  72 1.43
  26  0.467  0.670  0.436-   4 1.42   2 1.43  71 1.43
  27  0.434  0.420  0.436-   2 1.42  10 1.43   3 1.43
  28  0.434  0.920  0.436-   1 1.42   9 1.42   4 1.43
  29  0.334  0.170  0.436-   7 1.41  11 1.42   5 1.43
  30  0.334  0.670  0.436-   8 1.41  12 1.42   6 1.43
  31  0.302  0.417  0.436- 120 1.09   7 1.37   6 1.41
  32  0.302  0.917  0.436- 119 1.09   8 1.37   5 1.41
  33  0.401  0.170  0.436-   9 1.42   3 1.42  11 1.43
  34  0.401  0.670  0.436-  10 1.42   4 1.42  12 1.43
  35  0.367  0.420  0.436-   6 1.42  11 1.43  10 1.43
  36  0.367  0.920  0.436-   5 1.42  12 1.43   9 1.43
  37  0.302  0.083  0.564- 113 1.09  19 1.37  17 1.41
  38  0.302  0.583  0.564- 114 1.09  20 1.37  18 1.41
  39  0.467  0.330  0.564-  15 1.42  14 1.43  58 1.43
  40  0.467  0.830  0.564-  16 1.42  13 1.43  57 1.43
  41  0.367  0.080  0.564-  17 1.42  23 1.43  21 1.43
  42  0.367  0.580  0.564-  18 1.42  24 1.43  22 1.43
  43  0.334  0.330  0.564-  19 1.41  23 1.42  18 1.43
  44  0.334  0.830  0.564-  20 1.41  24 1.42  17 1.43
  45  0.434  0.080  0.564-  13 1.42  21 1.43  15 1.43
  46  0.434  0.580  0.564-  14 1.42  22 1.43  16 1.43
  47  0.401  0.330  0.564-  22 1.42  15 1.42  23 1.43
  48  0.401  0.830  0.564-  21 1.42  16 1.42  24 1.43
  49  0.533  0.997  0.564-  80 1.42  77 1.43  86 1.43
  50  0.533  0.497  0.564-  79 1.42  78 1.43  85 1.43
  51  0.566  0.747  0.564-  77 1.42  87 1.42  79 1.43
  52  0.566  0.247  0.564-  78 1.42  88 1.42  80 1.43
  53  0.666  0.997  0.564-  84 1.41  90 1.42  81 1.43
  54  0.666  0.497  0.564-  83 1.41  89 1.42  82 1.43
  55  0.698  0.743  0.564- 107 1.09  83 1.37  81 1.41
  56  0.698  0.243  0.564- 108 1.09  84 1.37  82 1.41
  57  0.500  0.747  0.564-  85 1.42  77 1.43  40 1.43
  58  0.500  0.247  0.564-  86 1.42  78 1.43  39 1.43
  59  0.599  0.997  0.564-  87 1.42  80 1.42  90 1.43
  60  0.599  0.497  0.564-  88 1.42  79 1.43  89 1.43
  61  0.633  0.747  0.564-  81 1.42  89 1.43  87 1.43
  62  0.633  0.247  0.564-  82 1.42  90 1.43  88 1.43
  63  0.533  0.003  0.436- 101 1.42  96 1.43  93 1.43
  64  0.533  0.503  0.436- 102 1.42  95 1.43  94 1.43
  65  0.566  0.753  0.436-  95 1.42 103 1.42 101 1.43
  66  0.566  0.253  0.436-  96 1.42 104 1.42 102 1.43
  67  0.666  0.003  0.436-  91 1.41  97 1.42 100 1.43
  68  0.666  0.503  0.436-  92 1.41  98 1.42  99 1.43
  69  0.698  0.757  0.436- 109 1.09  91 1.37  99 1.41
  70  0.698  0.256  0.436- 110 1.09  92 1.37 100 1.41
  71  0.500  0.753  0.436-  93 1.42  95 1.43  26 1.43
  72  0.500  0.253  0.436-  94 1.42  25 1.43  96 1.43
  73  0.599  0.003  0.436- 104 1.42 101 1.43  97 1.43
  74  0.599  0.503  0.436- 103 1.42 102 1.43  98 1.43
  75  0.633  0.753  0.436-  99 1.42  97 1.43 103 1.43
  76  0.633  0.253  0.436- 100 1.42  98 1.43 104 1.43
  77  0.533  0.830  0.564-  51 1.42  49 1.43  57 1.43
  78  0.533  0.330  0.564-  52 1.42  50 1.43  58 1.43
  79  0.566  0.580  0.564-  50 1.42  60 1.43  51 1.43
  80  0.566  0.080  0.564-  49 1.42  59 1.42  52 1.43
  81  0.666  0.830  0.564-  55 1.41  61 1.42  53 1.43
  82  0.666  0.330  0.564-  56 1.41  62 1.42  54 1.43
  83  0.698  0.583  0.564- 112 1.09  55 1.37  54 1.41
  84  0.698  0.083  0.564- 111 1.09  56 1.37  53 1.41
  85  0.500  0.580  0.564-  57 1.42  14 1.43  50 1.43
  86  0.500  0.080  0.564-  58 1.42  13 1.43  49 1.43
  87  0.599  0.830  0.564-  59 1.42  51 1.42  61 1.43
  88  0.599  0.330  0.564-  60 1.42  52 1.42  62 1.43
  89  0.633  0.580  0.564-  54 1.42  61 1.43  60 1.43
  90  0.633  0.080  0.564-  53 1.42  62 1.43  59 1.43
  91  0.698  0.917  0.436- 105 1.09  69 1.37  67 1.41
  92  0.698  0.417  0.436- 106 1.09  70 1.37  68 1.41
  93  0.500  0.919  0.436-  71 1.42   1 1.43  63 1.43
  94  0.500  0.420  0.436-  72 1.42  64 1.43   2 1.43
  95  0.533  0.670  0.436-  65 1.42  64 1.43  71 1.43
  96  0.533  0.170  0.436-  66 1.42  63 1.43  72 1.43
  97  0.633  0.920  0.436-  67 1.42  75 1.43  73 1.43
  98  0.633  0.420  0.436-  68 1.42  76 1.43  74 1.43
  99  0.666  0.670  0.436-  69 1.41  75 1.42  68 1.43
 100  0.666  0.170  0.436-  70 1.41  76 1.42  67 1.43
 101  0.566  0.920  0.436-  63 1.42  73 1.43  65 1.43
 102  0.566  0.420  0.436-  64 1.42  74 1.43  66 1.43
 103  0.599  0.670  0.436-  74 1.42  65 1.42  75 1.43
 104  0.599  0.170  0.436-  73 1.42  66 1.42  76 1.43
 105  0.724  0.977  0.437-  91 1.09
 106  0.724  0.477  0.437-  92 1.09
 107  0.724  0.804  0.563-  55 1.09
 108  0.724  0.304  0.563-  56 1.09
 109  0.724  0.696  0.437-  69 1.09
 110  0.724  0.196  0.437-  70 1.09
 111  0.724  0.023  0.563-  84 1.09
 112  0.724  0.523  0.563-  83 1.09
 113  0.276  0.023  0.563-  37 1.09
 114  0.276  0.523  0.563-  38 1.09
 115  0.276  0.196  0.437-   7 1.09
 116  0.276  0.696  0.437-   8 1.09
 117  0.276  0.304  0.563-  19 1.09
 118  0.276  0.804  0.563-  20 1.09
 119  0.276  0.977  0.437-  32 1.09
 120  0.276  0.477  0.437-  31 1.09
 121  0.196  0.331  0.500-

  LATTYP: Found a simple orthorhombic cell.
 ALAT       =     8.5469398499
 B/A-ratio  =     3.2529857904
 C/A-ratio  =     4.3551772818
  
  Lattice vectors:
  
 A1 = (   0.0000000000,   8.5469398499,   0.0000000000)
 A2 = (   0.0000000000,   0.0000000000, -27.8030738831)
 A3 = ( -37.2234382629,   0.0000000000,   0.0000000000)


Analysis of symmetry for initial positions (statically):
=====================================================================
 Subroutine PRICEL returns:
 Original cell was already a primitive cell.
 

 Routine SETGRP: Setting up the symmetry group for a 
 simple orthorhombic supercell.


 Subroutine GETGRP returns: Found  1 space group operations
 (whereof  1 operations were pure point group operations)
 out of a pool of  8 trial point group operations.


The static configuration has the point symmetry C_1 .


Analysis of symmetry for dynamics (positions and initial velocities):
=====================================================================
 Subroutine PRICEL returns:
 Original cell was already a primitive cell.
 

 Routine SETGRP: Setting up the symmetry group for a 
 simple orthorhombic supercell.


 Subroutine GETGRP returns: Found  1 space group operations
 (whereof  1 operations were pure point group operations)
 out of a pool of  8 trial point group operations.


The dynamic configuration has the point symmetry C_1 .


Analysis of structural, dynamic, and magnetic symmetry:
=====================================================================
 Subroutine PRICEL returns:
 Original cell was already a primitive cell.
 

 Routine SETGRP: Setting up the symmetry group for a 
 simple orthorhombic supercell.


 Subroutine GETGRP returns: Found  1 space group operations
 (whereof  1 operations were pure point group operations)
 out of a pool of  8 trial point group operations.


The magnetic configuration has the point symmetry C_1 .


 Subroutine INISYM returns: Found  1 space group operations
 (whereof  1 operations are pure point group operations),
 and found     1 'primitive' translations



 KPOINTS: Regular k-point mesh                    

Automatic generation of k-mesh.
Space group operators:
 irot       det(A)        alpha          n_x          n_y          n_z        tau_x        tau_y        tau_z
    1     1.000000     0.000000     1.000000     0.000000     0.000000     0.000000     0.000000     0.000000
 
 Subroutine IBZKPT returns following result:
 ===========================================
 
 Found      5 irreducible k-points:
 
 Following reciprocal coordinates:
            Coordinates               Weight
  0.000000  0.000000  0.000000      1.000000
  0.000000  0.125000  0.000000      2.000000
  0.000000  0.250000  0.000000      2.000000
  0.000000  0.375000  0.000000      2.000000
  0.000000  0.500000  0.000000      1.000000
 
 Following cartesian coordinates:
            Coordinates               Weight
  0.000000  0.000000  0.000000      1.000000
  0.000000  0.014625  0.000000      2.000000
  0.000000  0.029250  0.000000      2.000000
  0.000000  0.043875  0.000000      2.000000
  0.000000  0.058500  0.000000      1.000000
 


--------------------------------------------------------------------------------------------------------




 Dimension of arrays:
   k-points           NKPTS =      5   k-points in BZ     NKDIM =      5   number of bands    NBANDS=    340
   number of dos      NEDOS =    301   number of ions     NIONS =    121
   non local maximal  LDIM  =      4   non local SUM 2l+1 LMDIM =      8
   total plane-waves  NPLWV = ******
   max r-space proj   IRMAX =   1228   max aug-charges    IRDMAX=   4283
   dimension x,y,z NGX =   192 NGY =   42 NGZ =  140
   dimension x,y,z NGXF=   384 NGYF=   84 NGZF=  280
   support grid    NGXF=   384 NGYF=   84 NGZF=  280
   ions per type =             104  16   1
   NGX,Y,Z   is equivalent  to a cutoff of   8.58,  8.17,  8.37 a.u.
   NGXF,Y,Z  is equivalent  to a cutoff of  17.15, 16.34, 16.74 a.u.

 SYSTEM =  unknown system                          
 POSCAR =  C4                                      

 Startparameter for this run:
   NWRITE =      2    write-flag & timer
   PREC   = normal    normal or accurate (medium, high low for compatibility)
   ISTART =      0    job   : 0-new  1-cont  2-samecut
   ICHARG =      2    charge: 1-file 2-atom 10-const
   ISPIN  =      2    spin polarized calculation?
   LNONCOLLINEAR =      F non collinear calculations
   LSORBIT =      F    spin-orbit coupling
   INIWAV =      1    electr: 0-lowe 1-rand  2-diag
   LASPH  =      F    aspherical Exc in radial PAW
   METAGGA=      F    non-selfconsistent MetaGGA calc.

 Electronic Relaxation 1
   ENCUT  =  400.0 eV  29.40 Ry    5.42 a.u.  60.70 13.94 45.34*2*pi/ulx,y,z
   ENINI  =  400.0     initial cutoff
   ENAUG  =  644.9 eV  augmentation charge cutoff
   NELM   =    100;   NELMIN=  2; NELMDL= -5     # of ELM steps 
   EDIFF  = 0.1E-03   stopping-criterion for ELM
   LREAL  =      T    real-space projection
   NLSPLINE    = F    spline interpolate recip. space projectors
   LCOMPAT=      F    compatible to vasp.4.4
   GGA_COMPAT  = T    GGA compatible to vasp.4.4-vasp.4.6
   LMAXPAW     = -100 max onsite density
   LMAXMIX     =    2 max onsite mixed and CHGCAR
   VOSKOWN=      0    Vosko Wilk Nusair interpolation
   ROPT   =   -0.00050  -0.00050  -0.00050
 Ionic relaxation
   EDIFFG = -.1E-01   stopping-criterion for IOM
   NSW    =      0    number of steps for IOM
   NBLOCK =      1;   KBLOCK =      1    inner block; outer block 
   IBRION =     -1    ionic relax: 0-MD 1-quasi-New 2-CG
   NFREE  =      1    steps in history (QN), initial steepest desc. (CG)
   ISIF   =      2    stress and relaxation
   IWAVPR =     10    prediction:  0-non 1-charg 2-wave 3-comb
   ISYM   =      2    0-nonsym 1-usesym 2-fastsym
   LCORR  =      T    Harris-Foulkes like correction to forces

   POTIM  = 0.5000    time-step for ionic-motion
   TEIN   =    0.0    initial temperature
   TEBEG  =    0.0;   TEEND  =   0.0 temperature during run
   SMASS  =  -3.00    Nose mass-parameter (am)
   estimated Nose-frequenzy (Omega)   =  0.10E-29 period in steps =****** mass=  -0.317E-25a.u.
   SCALEE = 1.0000    scale energy and forces
   NPACO  =    256;   APACO  = 16.0  distance and # of slots for P.C.
   PSTRESS=    0.0 pullay stress

  Mass of Ions in am
   POMASS =  12.01  1.00  7.01
  Ionic Valenz
   ZVAL   =   4.00  1.00  1.00
  Atomic Wigner-Seitz radii
   RWIGS  =  -1.00 -1.00 -1.00
  virtual crystal weights 
   VCA    =   1.00  1.00  1.00
   NELECT =     433.0000    total number of electrons
   NUPDOWN=      -1.0000    fix difference up-down

 DOS related values:
   EMIN   =  10.00;   EMAX   =-10.00  energy-range for DOS
   EFERMI =   0.00
   ISMEAR =     0;   SIGMA  =   0.10  broadening in eV -4-tet -1-fermi 0-gaus

 Electronic relaxation 2 (details)
   IALGO  =     38    algorithm
   LDIAG  =      T    sub-space diagonalisation (order eigenvalues)
   LSUBROT=      F    optimize rotation matrix (better conditioning)
   TURBO    =      0    0=normal 1=particle mesh
   IRESTART =      0    0=no restart 2=restart with 2 vectors
   NREBOOT  =      0    no. of reboots
   NMIN     =      0    reboot dimension
   EREF     =   0.00    reference energy to select bands
   IMIX   =      4    mixing-type and parameters
     AMIX     =   0.40;   BMIX     =  1.00
     AMIX_MAG =   1.60;   BMIX_MAG =  1.00
     AMIN     =   0.10
     WC   =   100.;   INIMIX=   1;  MIXPRE=   1;  MAXMIX= -45

 Intra band minimization:
   WEIMIN = 0.0000     energy-eigenvalue tresh-hold
   EBREAK =  0.74E-07  absolut break condition
   DEPER  =   0.30     relativ break condition  

   TIME   =   0.40     timestep for ELM

  volume/ion in A,a.u.               =      73.10       493.32
  Fermi-wavevector in a.u.,A,eV,Ry     =   0.598868  1.131696  4.879626  0.358642
  Thomas-Fermi vector in A             =   1.650134

 Write flags
   LWAVE        =      T    write WAVECAR
   LDOWNSAMPLE  =      F    k-point downsampling of WAVECAR
   LCHARG       =      T    write CHGCAR
   LVTOT        =      F    write LOCPOT, total local potential
   LVHAR        =      F    write LOCPOT, Hartree potential only
   LELF         =      F    write electronic localiz. function (ELF)
   LORBIT       =      0    0 simple, 1 ext, 2 COOP (PROOUT), +10 PAW based schemes


 Dipole corrections
   LMONO  =      F    monopole corrections only (constant potential shift)
   LDIPOL =      F    correct potential (dipole corrections)
   IDIPOL =      0    1-x, 2-y, 3-z, 4-all directions 
   EPSILON=  1.0000000 bulk dielectric constant

 Exchange correlation treatment:
   GGA     =    --    GGA type
   LEXCH   =     8    internal setting for exchange type
   VOSKOWN=      0    Vosko Wilk Nusair interpolation
   LHFCALC =     F    Hartree Fock is set to
   LHFONE  =     F    Hartree Fock one center treatment
   AEXX    =    0.0000 exact exchange contribution

 Linear response parameters
   LEPSILON=     F    determine dielectric tensor
   LRPA    =     F    only Hartree local field effects (RPA)
   LNABLA  =     F    use nabla operator in PAW spheres
   LVEL    =     F    velocity operator in full k-point grid
   LINTERFAST=   F  fast interpolation
   KINTER  =     0    interpolate to denser k-point grid
   CSHIFT  =0.1000    complex shift for real part using Kramers Kronig
   OMEGAMAX=  -1.0    maximum frequency
   DEG_THRESHOLD= 0.2000000E-02 threshold for treating states as degnerate
   RTIME   =   -0.100 relaxation time in fs
  (WPLASMAI=    0.000 imaginary part of plasma frequency in eV, 0.658/RTIME)
   DFIELD  = 0.0000000 0.0000000 0.0000000 field for delta impulse in time

 Orbital magnetization related:
   ORBITALMAG=     F  switch on orbital magnetization
   LCHIMAG   =     F  perturbation theory with respect to B field
   DQ        =  0.001000  dq finite difference perturbation B field
   LLRAUG    =     F  two centre corrections for induced B field



--------------------------------------------------------------------------------------------------------


 Static calculation
 charge density and potential will be updated during run
 spin polarized calculation
 Variant of blocked Davidson
 Davidson routine will perform the subspace rotation
 perform sub-space diagonalisation
    after iterative eigenvector-optimisation
 modified Broyden-mixing scheme, WC =      100.0
 initial mixing is a Kerker type mixing with AMIX =  0.4000 and BMIX =      1.0000
 Hartree-type preconditioning will be used
 using additional bands          123
 real space projection scheme for non local part
 use partial core corrections
 calculate Harris-corrections to forces   (improved forces if not selfconsistent)
 use gradient corrections 
 use of overlap-Matrix (Vanderbilt PP)
 Gauss-broadening in eV      SIGMA  =   0.10


--------------------------------------------------------------------------------------------------------


  energy-cutoff  :      400.00
  volume of cell :     8845.45
      direct lattice vectors                 reciprocal lattice vectors
    37.223438263  0.000000000  0.000000000     0.026864794  0.000000000  0.000000000
     0.000000000  8.546939850  0.000000000     0.000000000  0.117000940  0.000000000
     0.000000000  0.000000000 27.803073883     0.000000000  0.000000000  0.035967246

  length of vectors
    37.223438263  8.546939850 27.803073883     0.026864794  0.117000940  0.035967246



 k-points in units of 2pi/SCALE and weight: Regular k-point mesh                    
   0.00000000  0.00000000  0.00000000       0.125
   0.00000000  0.01462512  0.00000000       0.250
   0.00000000  0.02925024  0.00000000       0.250
   0.00000000  0.04387535  0.00000000       0.250
   0.00000000  0.05850047  0.00000000       0.125

 k-points in reciprocal lattice and weights: Regular k-point mesh                    
   0.00000000  0.00000000  0.00000000       0.125
   0.00000000  0.12500000  0.00000000       0.250
   0.00000000  0.25000000  0.00000000       0.250
   0.00000000  0.37500000  0.00000000       0.250
   0.00000000  0.50000000  0.00000000       0.125

 position of ions in fractional coordinates (direct lattice) 
   0.46682320  0.00297472  0.43597486
   0.46682441  0.50298092  0.43597786
   0.43374231  0.25293625  0.43601871
   0.43374236  0.75294306  0.43601933
   0.33424870  0.00267975  0.43606025
   0.33424624  0.50268228  0.43606661
   0.30182639  0.25650378  0.43628402
   0.30182822  0.75649895  0.43627065
   0.40061359  0.00348454  0.43603631
   0.40061176  0.50348331  0.43603334
   0.36732951  0.25306654  0.43601746
   0.36733302  0.75306775  0.43601521
   0.46682363  0.99701683  0.56402359
   0.46682203  0.49701967  0.56402416
   0.43374127  0.24705801  0.56397954
   0.43374031  0.74705541  0.56398037
   0.33424568  0.99731810  0.56393693
   0.33424612  0.49732097  0.56393602
   0.30182465  0.24349141  0.56372653
   0.30182766  0.74350450  0.56372144
   0.40061076  0.99651122  0.56396301
   0.40061119  0.49651340  0.56396353
   0.36732771  0.24693063  0.56398229
   0.36733083  0.74693300  0.56398208
   0.46682225  0.16977091  0.43597063
   0.46681997  0.66977412  0.43597017
   0.43373852  0.41990595  0.43601288
   0.43373848  0.91990707  0.43601081
   0.33425551  0.17046088  0.43606263
   0.33425768  0.67046343  0.43605640
   0.30181258  0.41663673  0.43624482
   0.30181419  0.91663631  0.43623134
   0.40061075  0.16951033  0.43601396
   0.40061122  0.66951493  0.43601633
   0.36732467  0.42001774  0.43601775
   0.36732767  0.92002170  0.43601519
   0.30181211  0.08336155  0.56376283
   0.30181133  0.58336391  0.56376337
   0.46682035  0.33023146  0.56402865
   0.46681903  0.83022401  0.56403054
   0.36732454  0.07998191  0.56398202
   0.36732481  0.57997832  0.56398151
   0.33425314  0.32953667  0.56394047
   0.33425587  0.82953979  0.56394180
   0.43373711  0.08009345  0.56398853
   0.43373717  0.58009143  0.56398611
   0.40060784  0.33048527  0.56398450
   0.40060986  0.83048174  0.56398102
   0.53317795  0.99701603  0.56402498
   0.53317690  0.49701174  0.56402274
   0.56625919  0.74705831  0.56398086
   0.56625872  0.24705622  0.56398029
   0.66575026  0.99731404  0.56394117
   0.66575242  0.49731675  0.56393527
   0.69817296  0.74349315  0.56372289
   0.69817321  0.24349699  0.56372869
   0.49999965  0.74677709  0.56402245
   0.49999949  0.24677751  0.56402330
   0.59938624  0.99651379  0.56396350
   0.59938725  0.49650797  0.56396547
   0.63266775  0.74692412  0.56398421
   0.63266912  0.24692576  0.56398513
   0.53317790  0.00297945  0.43597581
   0.53317909  0.50297795  0.43597626
   0.56626123  0.75293811  0.43601965
   0.56626047  0.25293895  0.43601859
   0.66575405  0.00267645  0.43606188
   0.66575337  0.50267503  0.43606207
   0.69817497  0.75650075  0.43627080
   0.69817449  0.25649467  0.43627908
   0.50000161  0.75321477  0.43597635
   0.50000167  0.25321844  0.43597894
   0.59938871  0.00349017  0.43603545
   0.59938842  0.50347931  0.43603427
   0.63267037  0.75307068  0.43601577
   0.63267081  0.25306564  0.43601633
   0.53318013  0.83022398  0.56403038
   0.53317970  0.33021966  0.56402944
   0.56626251  0.58008980  0.56398667
   0.56626224  0.08009120  0.56398899
   0.66574234  0.82953065  0.56394091
   0.66574338  0.32953305  0.56394391
   0.69818794  0.58335844  0.56376241
   0.69818741  0.08335547  0.56376873
   0.49999962  0.58049751  0.56403470
   0.50000058  0.08049929  0.56403168
   0.59938982  0.83048673  0.56398507
   0.59939116  0.33047726  0.56398436
   0.63267239  0.57997475  0.56398251
   0.63267162  0.07997338  0.56398488
   0.69818978  0.91663407  0.43623477
   0.69818966  0.41663613  0.43623499
   0.50000066  0.91949494  0.43596828
   0.50000171  0.41950192  0.43596587
   0.53318212  0.66976921  0.43597049
   0.53318159  0.16977294  0.43596998
   0.63267412  0.92001858  0.43601570
   0.63267452  0.42001681  0.43601621
   0.66574452  0.67046299  0.43605801
   0.66574550  0.17045489  0.43605721
   0.56626332  0.91990560  0.43601079
   0.56626323  0.41990072  0.43601315
   0.59939277  0.66950773  0.43601447
   0.59939292  0.16951360  0.43601621
   0.72391709  0.97712321  0.43652626
   0.72391911  0.47711640  0.43653205
   0.72388049  0.80413917  0.56335372
   0.72388138  0.30413326  0.56336551
   0.72388193  0.69586247  0.43663607
   0.72388210  0.19585054  0.43664539
   0.72391548  0.02286590  0.56348009
   0.72391667  0.52287850  0.56346400
   0.27608647  0.02286855  0.56346991
   0.27608403  0.52287789  0.56346642
   0.27612003  0.19585474  0.43666046
   0.27612223  0.69584810  0.43663206
   0.27611835  0.30413505  0.56335819
   0.27612086  0.80415571  0.56335478
   0.27608764  0.97713132  0.43651935
   0.27608501  0.47711488  0.43654883
   0.19553000  0.33127296  0.49998886

 position of ions in cartesian coordinates  (Angst):
  17.37676465  0.02542474 12.12144112
  17.37680957  4.29894765 12.12152458
  16.14538011  2.16183094 12.12266042
  16.14538208  6.43535903 12.12267768
  12.44188586  0.02290363 12.12381539
  12.44179424  4.29639520 12.12399211
  11.23501614  2.19232240 12.13003675
  11.23508417  6.46575100 12.12966522
  14.91221510  0.02978217 12.12314978
  14.91214714  4.30324155 12.12306713
  13.67326724  2.16294446 12.12262578
  13.67339814  6.43642474 12.12256303
  17.37678071  8.52144284 15.68158953
  17.37672100  4.24799726 15.68160544
  16.14534142  2.11158998 15.68036474
  16.14530554  6.38503762 15.68038799
  12.44177352  8.52401778 15.67918026
  12.44178986  4.25057238 15.67915473
  11.23495119  2.08110639 15.67333041
  11.23506340  6.35468822 15.67318893
  14.91210973  8.51712147 15.67990527
  14.91212607  4.24367015 15.67991971
  13.67320047  2.11050126 15.68044121
  13.67331651  6.38399144 15.68043537
  17.37672924  1.45102177 12.12132361
  17.37664427  5.72451914 12.12131088
  16.14523917  3.58891088 12.12249826
  16.14523761  7.86239043 12.12244078
  12.44213926  1.45691893 12.12388153
  12.44222015  5.73041063 12.12370825
  11.23450196  3.56096910 12.12894710
  11.23456184  7.83443544 12.12857209
  14.91210954  1.44879462 12.12252829
  14.91212690  5.72230380 12.12259410
  13.67308706  3.58986635 12.12263379
  13.67319896  7.86337010 12.12256263
  11.23448438  0.71248620 15.67433948
  11.23445523  4.98597624 15.67435463
  17.37665856  2.82246838 15.68173030
  17.37660940  7.09587471 15.68178269
  13.67308221  0.68360055 15.68043368
  13.67309223  4.95703983 15.68041965
  12.44205108  2.81653011 15.67927859
  12.44215256  7.09002666 15.67931540
  16.14518643  0.68455393 15.68061479
  16.14518862  4.95800655 15.68054760
  14.91200127  2.82463768 15.68050262
  14.91207657  7.09807750 15.68040604
  19.84671642  8.52143600 15.68162824
  19.84667728  4.24792943 15.68156587
  21.07811412  6.38506241 15.68040166
  21.07809637  2.11157465 15.68038567
  24.78151377  8.52398309 15.67929810
  24.78159413  4.25053636 15.67913389
  25.98839825  6.35459127 15.67322906
  25.98840754  2.08115411 15.67339029
  18.61170613  6.38265886 15.68155796
  18.61170019  2.10919252 15.68158137
  22.31121683  8.51714344 15.67991884
  22.31125415  4.24362379 15.67997372
  23.55006879  6.38391557 15.68049452
  23.55011997  2.11045963 15.68052031
  19.84671483  0.02546522 12.12146779
  19.84675878  4.29892225 12.12148016
  21.07818987  6.43531675 12.12268662
  21.07816152  2.16185401 12.12265717
  24.78165472  0.02287546 12.12386069
  24.78162952  4.29633324 12.12386594
  25.98847296  6.46576643 12.12966937
  25.98845487  2.19224449 12.12989942
  18.61177894  6.43768132 12.12148256
  18.61178132  2.16424279 12.12155479
  22.31130862  0.02983030 12.12312584
  22.31129793  4.30320738 12.12309309
  23.55016630  6.43644982 12.12257860
  23.55018281  2.16293681 12.12259436
  19.84679780  7.09587440 15.68177827
  19.84678182  2.82236761 15.68175221
  21.07823772  4.95799259 15.68056306
  21.07822760  0.68453469 15.68062750
  24.78121884  7.08994860 15.67929076
  24.78125753  2.81649914 15.67937427
  25.98895566  4.98592950 15.67432796
  25.98893578  0.71243418 15.67450367
  18.61170511  4.96147728 15.68189853
  18.61174068  0.68802257 15.68181451
  22.31134978  7.09812017 15.68051844
  22.31139968  2.82456923 15.68049875
  23.55024152  4.95700926 15.68044735
  23.55021299  0.68352766 15.68051326
  25.98902412  7.83441622 12.12866765
  25.98901974  3.56096394 12.12867355
  18.61174382  7.85886795 12.12125828
  18.61178269  3.58545770 12.12119137
  19.84687156  5.72447713 12.12131965
  19.84685190  1.45103911 12.12130555
  23.55030622  7.86334345 12.12257664
  23.55032110  3.58985839 12.12259103
  24.78130001  5.73040688 12.12375301
  24.78133647  1.45686768 12.12373074
  21.07826784  7.86237780 12.12244020
  21.07826453  3.58886620 12.12250589
  22.31145965  5.72224229 12.12254245
  22.31146550  1.44882252 12.12259104
  26.94668305  8.35141330 12.13677184
  26.94675840  4.07788514 12.13693272
  26.94532073  6.87292915 15.66296521
  26.94535372  2.59940866 15.66329284
  26.94537436  5.94749466 12.13982497
  26.94538083  1.67392280 12.14008401
  26.94662322  0.19543346 15.66647852
  26.94666750  4.46901111 15.66603136
  10.27688767  0.19545610 15.66619545
  10.27679702  4.46900585 15.66609839
  10.27813681  1.67395872 12.14050300
  10.27821867  5.94737182 12.13971346
  10.27807451  2.59942401 15.66308949
  10.27816791  6.87307048 15.66299447
  10.27693108  8.35148266 12.13657962
  10.27683332  4.07787220 12.13739924
   7.27829888  2.83137007 13.90122722



--------------------------------------------------------------------------------------------------------


 k-point  1 :   0.0000 0.0000 0.0000  plane waves:  160581
 k-point  2 :   0.0000 0.1250 0.0000  plane waves:  160598
 k-point  3 :   0.0000 0.2500 0.0000  plane waves:  160676
 k-point  4 :   0.0000 0.3750 0.0000  plane waves:  160782
 k-point  5 :   0.0000 0.5000 0.0000  plane waves:  160764

 maximum and minimum number of plane-waves per node :     40304    39998

 maximum number of plane-waves:    160782
 maximum index in each direction: 
   IXMAX=   60   IYMAX=   13   IZMAX=   45
   IXMIN=  -60   IYMIN=  -14   IZMIN=  -45


 real space projection operators:
  total allocation   :       8143.25 KBytes
  max/ min on nodes  :       2038.74       2032.39


 parallel 3D FFT for wavefunctions:
    minimum data exchange during FFTs selected (reduces bandwidth)
 parallel 3D FFT for charge:
    minimum data exchange during FFTs selected (reduces bandwidth)


 total amount of memory used by VASP MPI-rank0   315295. kBytes
=======================================================================

   base      :      30000. kBytes
   nonlr-proj:       4967. kBytes
   fftplans  :      16574. kBytes
   grid      :      43462. kBytes
   one-center:        190. kBytes
   wavefun   :     220102. kBytes

     INWAV:  cpu time    0.0000: real time    0.0000
 Broyden mixing: mesh for mixing (old mesh)
   NGX =121   NGY = 27   NGZ = 91
  (NGX  =384   NGY  = 84   NGZ  =280)
  gives a total of 297297 points

 initial charge density was supplied:
 charge density of overlapping atoms calculated
 number of electron     433.0000000 magnetization     121.0000000
 keeping initial charge density in first step


--------------------------------------------------------------------------------------------------------


 Maximum index for non-local projection operator          295
 Maximum index for augmentation-charges          225 (set IRDMAX)


--------------------------------------------------------------------------------------------------------


 First call to EWALD:  gamma=   0.086
 Maximum number of real-space cells 2x 6x 2
 Maximum number of reciprocal cells 5x 1x 4

    FEWALD:  cpu time    0.0041: real time    0.0042


--------------------------------------- Iteration      1(   1)  ---------------------------------------


    POTLOK:  cpu time    0.2955: real time    0.3099
    SETDIJ:  cpu time    0.0154: real time    0.0156
     EDDAV:  cpu time   42.6218: real time   42.8796
       DOS:  cpu time    0.0011: real time    0.0011
    --------------------------------------------
      LOOP:  cpu time   42.9338: real time   43.2062

 eigenvalue-minimisations  :  8340
 total energy-change (2. order) : 0.3592947E+04  (-0.1290033E+05)
 number of electron     433.0000000 magnetization     121.0000000
 augmentation part      433.0000000 magnetization     121.0000000

 Free energy of the ion-electron system (eV)
  ---------------------------------------------------
  alpha Z        PSCENC =       106.58810953
  Ewald energy   TEWEN  =    182480.53535832
  -Hartree energ DENC   =   -193291.74875380
  -exchange      EXHF   =         0.00000000
  -V(xc)+E(xc)   XCENC  =      1425.81859819
  PAW double counting   =     11309.19404398   -11362.06715896
  entropy T*S    EENTRO =        -0.31853003
  eigenvalues    EBANDS =     -2581.24453850
  atomic energy  EATOM  =     15506.18949415
  Solvation  Ediel_sol  =         0.00000000
  ---------------------------------------------------
  free energy    TOTEN  =      3592.94662288 eV

  energy without entropy =     3593.26515291  energy(sigma->0) =     3593.10588789


--------------------------------------------------------------------------------------------------------




--------------------------------------- Iteration      1(   2)  ---------------------------------------


     EDDAV:  cpu time   52.1052: real time   52.4080
       DOS:  cpu time    0.0010: real time    0.0010
    --------------------------------------------
      LOOP:  cpu time   52.1062: real time   52.4090

 eigenvalue-minimisations  : 10680
 total energy-change (2. order) :-0.3707529E+04  (-0.3352300E+04)
 number of electron     433.0000000 magnetization     121.0000000
 augmentation part      433.0000000 magnetization     121.0000000

 Free energy of the ion-electron system (eV)
  ---------------------------------------------------
  alpha Z        PSCENC =       106.58810953
  Ewald energy   TEWEN  =    182480.53535832
  -Hartree energ DENC   =   -193291.74875380
  -exchange      EXHF   =         0.00000000
  -V(xc)+E(xc)   XCENC  =      1425.81859819
  PAW double counting   =     11309.19404398   -11362.06715896
  entropy T*S    EENTRO =        -0.02245358
  eigenvalues    EBANDS =     -6289.07010419
  atomic energy  EATOM  =     15506.18949415
  Solvation  Ediel_sol  =         0.00000000
  ---------------------------------------------------
  free energy    TOTEN  =      -114.58286637 eV

  energy without entropy =     -114.56041278  energy(sigma->0) =     -114.57163958


--------------------------------------------------------------------------------------------------------




--------------------------------------- Iteration      1(   3)  ---------------------------------------


     EDDAV:  cpu time   46.3141: real time   46.5824
       DOS:  cpu time    0.0009: real time    0.0010
    --------------------------------------------
      LOOP:  cpu time   46.3150: real time   46.5833

 eigenvalue-minimisations  :  9270
 total energy-change (2. order) :-0.8704608E+03  (-0.8667767E+03)
 number of electron     433.0000000 magnetization     121.0000000
 augmentation part      433.0000000 magnetization     121.0000000

 Free energy of the ion-electron system (eV)
  ---------------------------------------------------
  alpha Z        PSCENC =       106.58810953
  Ewald energy   TEWEN  =    182480.53535832
  -Hartree energ DENC   =   -193291.74875380
  -exchange      EXHF   =         0.00000000
  -V(xc)+E(xc)   XCENC  =      1425.81859819
  PAW double counting   =     11309.19404398   -11362.06715896
  entropy T*S    EENTRO =        -0.02639701
  eigenvalues    EBANDS =     -7159.52692640
  atomic energy  EATOM  =     15506.18949415
  Solvation  Ediel_sol  =         0.00000000
  ---------------------------------------------------
  free energy    TOTEN  =      -985.04363201 eV

  energy without entropy =     -985.01723500  energy(sigma->0) =     -985.03043350


--------------------------------------------------------------------------------------------------------




--------------------------------------- Iteration      1(   4)  ---------------------------------------


     EDDAV:  cpu time   45.1311: real time   45.3949
       DOS:  cpu time    0.0010: real time    0.0010
    --------------------------------------------
      LOOP:  cpu time   45.1320: real time   45.3959

 eigenvalue-minimisations  :  9070
 total energy-change (2. order) :-0.3613471E+02  (-0.3595944E+02)
 number of electron     433.0000000 magnetization     121.0000000
 augmentation part      433.0000000 magnetization     121.0000000

 Free energy of the ion-electron system (eV)
  ---------------------------------------------------
  alpha Z        PSCENC =       106.58810953
  Ewald energy   TEWEN  =    182480.53535832
  -Hartree energ DENC   =   -193291.74875380
  -exchange      EXHF   =         0.00000000
  -V(xc)+E(xc)   XCENC  =      1425.81859819
  PAW double counting   =     11309.19404398   -11362.06715896
  entropy T*S    EENTRO =        -0.03291446
  eigenvalues    EBANDS =     -7195.65511615
  atomic energy  EATOM  =     15506.18949415
  Solvation  Ediel_sol  =         0.00000000
  ---------------------------------------------------
  free energy    TOTEN  =     -1021.17833921 eV

  energy without entropy =    -1021.14542474  energy(sigma->0) =    -1021.16188197


--------------------------------------------------------------------------------------------------------




--------------------------------------- Iteration      1(   5)  ---------------------------------------


     EDDAV:  cpu time   48.0784: real time   48.3469
       DOS:  cpu time    0.0010: real time    0.0010
    CHARGE:  cpu time    1.0671: real time    1.0739
    MIXING:  cpu time    0.0060: real time    0.0169
    --------------------------------------------
      LOOP:  cpu time   49.1525: real time   49.4388

 eigenvalue-minimisations  :  9800
 total energy-change (2. order) :-0.8355763E+00  (-0.8334675E+00)
 number of electron     433.0000259 magnetization     115.7469956
 augmentation part       11.4258947 magnetization     113.4862951

 Broyden mixing:
  rms(total) = 0.70726E+01    rms(broyden)= 0.70706E+01
  rms(prec ) = 0.71514E+01
  weight for this iteration     100.00

 Free energy of the ion-electron system (eV)
  ---------------------------------------------------
  alpha Z        PSCENC =       106.58810953
  Ewald energy   TEWEN  =    182480.53535832
  -Hartree energ DENC   =   -193291.74875380
  -exchange      EXHF   =         0.00000000
  -V(xc)+E(xc)   XCENC  =      1425.81859819
  PAW double counting   =     11309.19404398   -11362.06715896
  entropy T*S    EENTRO =        -0.03304648
  eigenvalues    EBANDS =     -7196.49056047
  atomic energy  EATOM  =     15506.18949415
  Solvation  Ediel_sol  =         0.00000000
  ---------------------------------------------------
  free energy    TOTEN  =     -1022.01391555 eV

  energy without entropy =    -1021.98086906  energy(sigma->0) =    -1021.99739231


--------------------------------------------------------------------------------------------------------




--------------------------------------- Iteration      1(   6)  ---------------------------------------


    POTLOK:  cpu time    0.2521: real time    0.2533
    SETDIJ:  cpu time    0.0153: real time    0.0153
     EDDAV:  cpu time   39.3797: real time   39.5872
       DOS:  cpu time    0.0011: real time    0.0011
    CHARGE:  cpu time    1.0558: real time    1.0609
    MIXING:  cpu time    0.0062: real time    0.0956
    --------------------------------------------
      LOOP:  cpu time   40.7101: real time   41.0134

 eigenvalue-minimisations  :  7750
 total energy-change (2. order) : 0.3760986E+03  (-0.6440998E+02)
 number of electron     433.0000264 magnetization     109.6731644
 augmentation part       11.3121509 magnetization     105.2466925

 Broyden mixing:
  rms(total) = 0.41849E+01    rms(broyden)= 0.41844E+01
  rms(prec ) = 0.42440E+01
  weight for this iteration     100.00

 eigenvalues of (default mixing * dielectric matrix)
  average eigenvalue GAMMA=   0.9968
  0.9968

 Free energy of the ion-electron system (eV)
  ---------------------------------------------------
  alpha Z        PSCENC =       106.58810953
  Ewald energy   TEWEN  =    182480.53535832
  -Hartree energ DENC   =   -194091.71895758
  -exchange      EXHF   =         0.00000000
  -V(xc)+E(xc)   XCENC  =      1695.44161872
  PAW double counting   =     21052.76075311   -21114.35071105
  entropy T*S    EENTRO =        -0.04669896
  eigenvalues    EBANDS =     -6281.31431351
  atomic energy  EATOM  =     15506.18949415
  Solvation  Ediel_sol  =         0.00000000
  ---------------------------------------------------
  free energy    TOTEN  =      -645.91534727 eV

  energy without entropy =     -645.86864831  energy(sigma->0) =     -645.89199779


--------------------------------------------------------------------------------------------------------




--------------------------------------- Iteration      1(   7)  ---------------------------------------


    POTLOK:  cpu time    0.2420: real time    0.2431
    SETDIJ:  cpu time    0.0151: real time    0.0151
     EDDAV:  cpu time   40.3656: real time   40.5718
       DOS:  cpu time    0.0011: real time    0.0011
    CHARGE:  cpu time    1.0556: real time    1.0611
    MIXING:  cpu time    0.0084: real time    0.0084
    --------------------------------------------
      LOOP:  cpu time   41.6877: real time   41.9006

 eigenvalue-minimisations  :  7990
 total energy-change (2. order) :-0.4703906E+02  (-0.7223062E+01)
 number of electron     433.0000251 magnetization     101.1177090
 augmentation part       10.9467758 magnetization      96.0337681

 Broyden mixing:
  rms(total) = 0.29070E+01    rms(broyden)= 0.29067E+01
  rms(prec ) = 0.29240E+01
  weight for this iteration     100.00

 eigenvalues of (default mixing * dielectric matrix)
  average eigenvalue GAMMA=   1.2513
  0.8064  1.6961

 Free energy of the ion-electron system (eV)
  ---------------------------------------------------
  alpha Z        PSCENC =       106.58810953
  Ewald energy   TEWEN  =    182480.53535832
  -Hartree energ DENC   =   -194854.40659573
  -exchange      EXHF   =         0.00000000
  -V(xc)+E(xc)   XCENC  =      1662.57182073
  PAW double counting   =     31316.42694265   -31382.91437315
  entropy T*S    EENTRO =        -0.03292467
  eigenvalues    EBANDS =     -5527.91223876
  atomic energy  EATOM  =     15506.18949415
  Solvation  Ediel_sol  =         0.00000000
  ---------------------------------------------------
  free energy    TOTEN  =      -692.95440694 eV

  energy without entropy =     -692.92148227  energy(sigma->0) =     -692.93794460


--------------------------------------------------------------------------------------------------------




--------------------------------------- Iteration      1(   8)  ---------------------------------------


    POTLOK:  cpu time    0.2411: real time    0.2423
    SETDIJ:  cpu time    0.0152: real time    0.0153
     EDDAV:  cpu time   40.3341: real time   40.5418
       DOS:  cpu time    0.0012: real time    0.0012
    CHARGE:  cpu time    1.0556: real time    1.0619
    MIXING:  cpu time    0.0094: real time    0.0094
    --------------------------------------------
      LOOP:  cpu time   41.6566: real time   41.8719

 eigenvalue-minimisations  :  8060
 total energy-change (2. order) :-0.4304817E+02  (-0.3779165E+01)
 number of electron     433.0000242 magnetization      94.4876609
 augmentation part       10.5926115 magnetization      90.1237344

 Broyden mixing:
  rms(total) = 0.20348E+01    rms(broyden)= 0.20346E+01
  rms(prec ) = 0.20382E+01
  weight for this iteration     100.00

 eigenvalues of (default mixing * dielectric matrix)
  average eigenvalue GAMMA=   1.3535
  2.3660  1.0077  0.6867

 Free energy of the ion-electron system (eV)
  ---------------------------------------------------
  alpha Z        PSCENC =       106.58810953
  Ewald energy   TEWEN  =    182480.53535832
  -Hartree energ DENC   =   -195437.14960561
  -exchange      EXHF   =         0.00000000
  -V(xc)+E(xc)   XCENC  =      1651.95832421
  PAW double counting   =     43078.86164607   -43147.78813684
  entropy T*S    EENTRO =        -0.02900921
  eigenvalues    EBANDS =     -4975.16876155
  atomic energy  EATOM  =     15506.18949415
  Solvation  Ediel_sol  =         0.00000000
  ---------------------------------------------------
  free energy    TOTEN  =      -736.00258093 eV

  energy without entropy =     -735.97357172  energy(sigma->0) =     -735.98807633


--------------------------------------------------------------------------------------------------------




--------------------------------------- Iteration      1(   9)  ---------------------------------------


    POTLOK:  cpu time    0.2420: real time    0.2432
    SETDIJ:  cpu time    0.0150: real time    0.0151
     EDDAV:  cpu time   39.3374: real time   39.5323
       DOS:  cpu time    0.0010: real time    0.0010
    CHARGE:  cpu time    1.0386: real time    1.0433
    MIXING:  cpu time    0.0131: real time    0.0131
    --------------------------------------------
      LOOP:  cpu time   40.6473: real time   40.8481

 eigenvalue-minimisations  :  7870
 total energy-change (2. order) :-0.4390547E+02  (-0.1202110E+01)
 number of electron     433.0000238 magnetization      84.1556610
 augmentation part       10.4827711 magnetization      80.6701081

 Broyden mixing:
  rms(total) = 0.16952E+01    rms(broyden)= 0.16952E+01
  rms(prec ) = 0.16983E+01
  weight for this iteration     100.00

 eigenvalues of (default mixing * dielectric matrix)
  average eigenvalue GAMMA=   1.4148
  2.6131  1.5397  0.8493  0.6572

 Free energy of the ion-electron system (eV)
  ---------------------------------------------------
  alpha Z        PSCENC =       106.58810953
  Ewald energy   TEWEN  =    182480.53535832
  -Hartree energ DENC   =   -195576.59165513
  -exchange      EXHF   =         0.00000000
  -V(xc)+E(xc)   XCENC  =      1629.56485094
  PAW double counting   =     47016.93585345   -47085.10135005
  entropy T*S    EENTRO =        -0.03411783
  eigenvalues    EBANDS =     -4857.99459025
  atomic energy  EATOM  =     15506.18949415
  Solvation  Ediel_sol  =         0.00000000
  ---------------------------------------------------
  free energy    TOTEN  =      -779.90804687 eV

  energy without entropy =     -779.87392904  energy(sigma->0) =     -779.89098796


--------------------------------------------------------------------------------------------------------




--------------------------------------- Iteration      1(  10)  ---------------------------------------


    POTLOK:  cpu time    0.2410: real time    0.2421
    SETDIJ:  cpu time    0.0150: real time    0.0151
     EDDAV:  cpu time   38.2840: real time   38.4751
       DOS:  cpu time    0.0011: real time    0.0011
    CHARGE:  cpu time    1.0516: real time    1.0580
    MIXING:  cpu time    0.0090: real time    0.0091
    --------------------------------------------
      LOOP:  cpu time   39.6017: real time   39.8004

 eigenvalue-minimisations  :  7580
 total energy-change (2. order) :-0.7319339E+02  (-0.3363325E+01)
 number of electron     433.0000235 magnetization      71.4403694
 augmentation part       10.4287903 magnetization      69.4549935

 Broyden mixing:
  rms(total) = 0.13526E+01    rms(broyden)= 0.13525E+01
  rms(prec ) = 0.13540E+01
  weight for this iteration     100.00

 eigenvalues of (default mixing * dielectric matrix)
  average eigenvalue GAMMA=   1.5672
  3.0995  2.3106  0.9909  0.8155  0.6198

 Free energy of the ion-electron system (eV)
  ---------------------------------------------------
  alpha Z        PSCENC =       106.58810953
  Ewald energy   TEWEN  =    182480.53535832
  -Hartree energ DENC   =   -195625.39494410
  -exchange      EXHF   =         0.00000000
  -V(xc)+E(xc)   XCENC  =      1585.46184244
  PAW double counting   =     48537.95619851   -48603.88577988
  entropy T*S    EENTRO =        -0.01957069
  eigenvalues    EBANDS =     -4840.53214379
  atomic energy  EATOM  =     15506.18949415
  Solvation  Ediel_sol  =         0.00000000
  ---------------------------------------------------
  free energy    TOTEN  =      -853.10143552 eV

  energy without entropy =     -853.08186483  energy(sigma->0) =     -853.09165017


--------------------------------------------------------------------------------------------------------




--------------------------------------- Iteration      1(  11)  ---------------------------------------


    POTLOK:  cpu time    0.2478: real time    0.2490
    SETDIJ:  cpu time    0.0148: real time    0.0149
     EDDAV:  cpu time   38.4037: real time   38.5997
       DOS:  cpu time    0.0011: real time    0.0011
    CHARGE:  cpu time    1.0352: real time    1.0402
    MIXING:  cpu time    0.0099: real time    0.0100
    --------------------------------------------
      LOOP:  cpu time   39.7126: real time   39.9149

 eigenvalue-minimisations  :  7620
 total energy-change (2. order) :-0.6055478E+02  (-0.3549799E+01)
 number of electron     433.0000231 magnetization      56.9978037
 augmentation part       10.3710891 magnetization      55.5999220

 Broyden mixing:
  rms(total) = 0.10285E+01    rms(broyden)= 0.10284E+01
  rms(prec ) = 0.10296E+01
  weight for this iteration     100.00

 eigenvalues of (default mixing * dielectric matrix)
  average eigenvalue GAMMA=   1.7273
  4.1213  2.5103  1.4041  0.9757  0.7380  0.6142

 Free energy of the ion-electron system (eV)
  ---------------------------------------------------
  alpha Z        PSCENC =       106.58810953
  Ewald energy   TEWEN  =    182480.53535832
  -Hartree energ DENC   =   -195655.96246245
  -exchange      EXHF   =         0.00000000
  -V(xc)+E(xc)   XCENC  =      1547.97948718
  PAW double counting   =     48031.56170497   -48096.18651740
  entropy T*S    EENTRO =        -0.00387132
  eigenvalues    EBANDS =     -4834.35751446
  atomic energy  EATOM  =     15506.18949415
  Solvation  Ediel_sol  =         0.00000000
  ---------------------------------------------------
  free energy    TOTEN  =      -913.65621148 eV

  energy without entropy =     -913.65234016  energy(sigma->0) =     -913.65427582


--------------------------------------------------------------------------------------------------------




--------------------------------------- Iteration      1(  12)  ---------------------------------------


    POTLOK:  cpu time    0.2472: real time    0.2483
    SETDIJ:  cpu time    0.0145: real time    0.0146
     EDDAV:  cpu time   37.5860: real time   37.7682
       DOS:  cpu time    0.0013: real time    0.0013
    CHARGE:  cpu time    1.0309: real time    1.0359
    MIXING:  cpu time    0.0120: real time    0.0121
    --------------------------------------------
      LOOP:  cpu time   38.8919: real time   39.0804

 eigenvalue-minimisations  :  7490
 total energy-change (2. order) :-0.5276466E+02  (-0.5051051E+01)
 number of electron     433.0000225 magnetization      44.9700568
 augmentation part       10.2711354 magnetization      43.8089438

 Broyden mixing:
  rms(total) = 0.69079E+00    rms(broyden)= 0.69057E+00
  rms(prec ) = 0.69266E+00
  weight for this iteration     100.00

 eigenvalues of (default mixing * dielectric matrix)
  average eigenvalue GAMMA=   2.1959
  7.5557  2.6317  1.9551  1.0998  0.8212  0.7022  0.6058

 Free energy of the ion-electron system (eV)
  ---------------------------------------------------
  alpha Z        PSCENC =       106.58810953
  Ewald energy   TEWEN  =    182480.53535832
  -Hartree energ DENC   =   -195661.49128854
  -exchange      EXHF   =         0.00000000
  -V(xc)+E(xc)   XCENC  =      1514.76223591
  PAW double counting   =     45692.40933892   -45757.20696320
  entropy T*S    EENTRO =        -0.00005136
  eigenvalues    EBANDS =     -4848.20710265
  atomic energy  EATOM  =     15506.18949415
  Solvation  Ediel_sol  =         0.00000000
  ---------------------------------------------------
  free energy    TOTEN  =      -966.42086893 eV

  energy without entropy =     -966.42081756  energy(sigma->0) =     -966.42084325


--------------------------------------------------------------------------------------------------------




--------------------------------------- Iteration      1(  13)  ---------------------------------------


    POTLOK:  cpu time    0.2469: real time    0.2805
    SETDIJ:  cpu time    0.0148: real time    0.0149
     EDDAV:  cpu time   38.4966: real time   38.6955
       DOS:  cpu time    0.0009: real time    0.0009
    CHARGE:  cpu time    1.0270: real time    1.0323
    MIXING:  cpu time    0.0120: real time    0.0258
    --------------------------------------------
      LOOP:  cpu time   39.7983: real time   40.0499

 eigenvalue-minimisations  :  7710
 total energy-change (2. order) :-0.1808841E+02  (-0.1520900E+01)
 number of electron     433.0000223 magnetization      40.3354260
 augmentation part       10.2381500 magnetization      39.2913058

 Broyden mixing:
  rms(total) = 0.51501E+00    rms(broyden)= 0.51485E+00
  rms(prec ) = 0.51723E+00
  weight for this iteration     100.00

 eigenvalues of (default mixing * dielectric matrix)
  average eigenvalue GAMMA=   2.2423
  9.0198  2.3699  2.3699  1.0588  1.0588  0.7762  0.6744  0.6104

 Free energy of the ion-electron system (eV)
  ---------------------------------------------------
  alpha Z        PSCENC =       106.58810953
  Ewald energy   TEWEN  =    182480.53535832
  -Hartree energ DENC   =   -195626.24110213
  -exchange      EXHF   =         0.00000000
  -V(xc)+E(xc)   XCENC  =      1500.49076005
  PAW double counting   =     44155.61718762   -44220.64299580
  entropy T*S    EENTRO =        -0.00002082
  eigenvalues    EBANDS =     -4887.04607013
  atomic energy  EATOM  =     15506.18949415
  Solvation  Ediel_sol  =         0.00000000
  ---------------------------------------------------
  free energy    TOTEN  =      -984.50927922 eV

  energy without entropy =     -984.50925840  energy(sigma->0) =     -984.50926881


--------------------------------------------------------------------------------------------------------




--------------------------------------- Iteration      1(  14)  ---------------------------------------


    POTLOK:  cpu time    0.2458: real time    0.2471
    SETDIJ:  cpu time    0.0146: real time    0.0147
     EDDAV:  cpu time   38.9752: real time   39.1755
       DOS:  cpu time    0.0008: real time    0.0008
    CHARGE:  cpu time    1.0276: real time    1.0329
    MIXING:  cpu time    0.0111: real time    0.0112
    --------------------------------------------
      LOOP:  cpu time   40.2752: real time   40.4822

 eigenvalue-minimisations  :  7850
 total energy-change (2. order) :-0.5536883E+01  (-0.8047223E-01)
 number of electron     433.0000223 magnetization      32.7860674
 augmentation part       10.2197024 magnetization      31.7582956

 Broyden mixing:
  rms(total) = 0.44957E+00    rms(broyden)= 0.44955E+00
  rms(prec ) = 0.45125E+00
  weight for this iteration     100.00

 eigenvalues of (default mixing * dielectric matrix)
  average eigenvalue GAMMA=   2.2712
  9.8852  2.5330  2.5330  1.4356  1.0594  0.9549  0.7655  0.6607  0.6132

 Free energy of the ion-electron system (eV)
  ---------------------------------------------------
  alpha Z        PSCENC =       106.58810953
  Ewald energy   TEWEN  =    182480.53535832
  -Hartree energ DENC   =   -195600.71095397
  -exchange      EXHF   =         0.00000000
  -V(xc)+E(xc)   XCENC  =      1495.28363642
  PAW double counting   =     44428.37847576   -44493.62890768
  entropy T*S    EENTRO =        -0.00006004
  eigenvalues    EBANDS =     -4912.68131508
  atomic energy  EATOM  =     15506.18949415
  Solvation  Ediel_sol  =         0.00000000
  ---------------------------------------------------
  free energy    TOTEN  =      -990.04616259 eV

  energy without entropy =     -990.04610254  energy(sigma->0) =     -990.04613257


--------------------------------------------------------------------------------------------------------




--------------------------------------- Iteration      1(  15)  ---------------------------------------


    POTLOK:  cpu time    0.2470: real time    0.2482
    SETDIJ:  cpu time    0.0142: real time    0.0143
     EDDAV:  cpu time   36.8999: real time   37.0895
       DOS:  cpu time    0.0012: real time    0.0012
    CHARGE:  cpu time    1.0281: real time    1.0331
    MIXING:  cpu time    0.0120: real time    0.0120
    --------------------------------------------
      LOOP:  cpu time   38.2024: real time   38.3984

 eigenvalue-minimisations  :  7390
 total energy-change (2. order) :-0.5211481E+01  (-0.7072936E-01)
 number of electron     433.0000223 magnetization      26.0544865
 augmentation part       10.2236291 magnetization      25.0466995

 Broyden mixing:
  rms(total) = 0.36879E+00    rms(broyden)= 0.36878E+00
  rms(prec ) = 0.36953E+00
  weight for this iteration     100.00

 eigenvalues of (default mixing * dielectric matrix)
  average eigenvalue GAMMA=   2.3175
 10.5718  3.1196  2.5641  1.9561  1.0844  1.0844  0.7616  0.7616  0.6147  0.6570

 Free energy of the ion-electron system (eV)
  ---------------------------------------------------
  alpha Z        PSCENC =       106.58810953
  Ewald energy   TEWEN  =    182480.53535832
  -Hartree energ DENC   =   -195506.81366110
  -exchange      EXHF   =         0.00000000
  -V(xc)+E(xc)   XCENC  =      1488.83572606
  PAW double counting   =     44322.83313348   -44388.18258784
  entropy T*S    EENTRO =        -0.00230634
  eigenvalues    EBANDS =     -5005.24091020
  atomic energy  EATOM  =     15506.18949415
  Solvation  Ediel_sol  =         0.00000000
  ---------------------------------------------------
  free energy    TOTEN  =      -995.25764395 eV

  energy without entropy =     -995.25533760  energy(sigma->0) =     -995.25649077


--------------------------------------------------------------------------------------------------------




--------------------------------------- Iteration      1(  16)  ---------------------------------------


    POTLOK:  cpu time    0.2480: real time    0.2491
    SETDIJ:  cpu time    0.0142: real time    0.0142
     EDDAV:  cpu time   37.4594: real time   37.6586
       DOS:  cpu time    0.0010: real time    0.0010
    CHARGE:  cpu time    1.0376: real time    1.0425
    MIXING:  cpu time    0.0273: real time    0.1167
    --------------------------------------------
      LOOP:  cpu time   38.7874: real time   39.0823

 eigenvalue-minimisations  :  7480
 total energy-change (2. order) :-0.4333765E+01  (-0.4271649E-01)
 number of electron     433.0000223 magnetization      16.1064876
 augmentation part       10.2301801 magnetization      15.1397344

 Broyden mixing:
  rms(total) = 0.30500E+00    rms(broyden)= 0.30500E+00
  rms(prec ) = 0.30580E+00
  weight for this iteration     100.00

 eigenvalues of (default mixing * dielectric matrix)
  average eigenvalue GAMMA=   2.3557
 11.0699  3.9927  2.4479  2.2649  1.1621  1.1621  1.0596  0.7610  0.7246  0.6157
  0.6521

 Free energy of the ion-electron system (eV)
  ---------------------------------------------------
  alpha Z        PSCENC =       106.58810953
  Ewald energy   TEWEN  =    182480.53535832
  -Hartree energ DENC   =   -195432.77718325
  -exchange      EXHF   =         0.00000000
  -V(xc)+E(xc)   XCENC  =      1483.81683748
  PAW double counting   =     44422.88631101   -44488.17274268
  entropy T*S    EENTRO =        -0.01158523
  eigenvalues    EBANDS =     -5078.64600782
  atomic energy  EATOM  =     15506.18949415
  Solvation  Ediel_sol  =         0.00000000
  ---------------------------------------------------
  free energy    TOTEN  =      -999.59140849 eV

  energy without entropy =     -999.57982326  energy(sigma->0) =     -999.58561587


--------------------------------------------------------------------------------------------------------




--------------------------------------- Iteration      1(  17)  ---------------------------------------


    POTLOK:  cpu time    0.2630: real time    0.2642
    SETDIJ:  cpu time    0.0143: real time    0.0144
     EDDAV:  cpu time   38.4155: real time   38.6295
       DOS:  cpu time    0.0011: real time    0.0011
    CHARGE:  cpu time    1.0418: real time    1.0477
    MIXING:  cpu time    0.0153: real time    0.0154
    --------------------------------------------
      LOOP:  cpu time   39.7511: real time   39.9722

 eigenvalue-minimisations  :  7670
 total energy-change (2. order) :-0.4662123E+01  (-0.3491077E-01)
 number of electron     433.0000223 magnetization       7.6383315
 augmentation part       10.2312723 magnetization       6.6860613

 Broyden mixing:
  rms(total) = 0.20081E+00    rms(broyden)= 0.20081E+00
  rms(prec ) = 0.20185E+00
  weight for this iteration     100.00

 eigenvalues of (default mixing * dielectric matrix)
  average eigenvalue GAMMA=   2.6775
 12.7967  6.6801  2.5627  2.5627  1.7634  1.1035  1.1035  0.8330  0.7338  0.7338
  0.6163  0.6412

 Free energy of the ion-electron system (eV)
  ---------------------------------------------------
  alpha Z        PSCENC =       106.58810953
  Ewald energy   TEWEN  =    182480.53535832
  -Hartree energ DENC   =   -195366.54946017
  -exchange      EXHF   =         0.00000000
  -V(xc)+E(xc)   XCENC  =      1479.05374751
  PAW double counting   =     44799.96942548   -44865.18476102
  entropy T*S    EENTRO =        -0.01335279
  eigenvalues    EBANDS =     -5144.84209265
  atomic energy  EATOM  =     15506.18949415
  Solvation  Ediel_sol  =         0.00000000
  ---------------------------------------------------
  free energy    TOTEN  =     -1004.25353165 eV

  energy without entropy =    -1004.24017885  energy(sigma->0) =    -1004.24685525


--------------------------------------------------------------------------------------------------------




--------------------------------------- Iteration      1(  18)  ---------------------------------------


    POTLOK:  cpu time    0.2501: real time    0.2514
    SETDIJ:  cpu time    0.0144: real time    0.0144
     EDDAV:  cpu time   37.8544: real time   38.0565
       DOS:  cpu time    0.0011: real time    0.0011
    CHARGE:  cpu time    1.0394: real time    1.0447
    MIXING:  cpu time    0.0139: real time    0.0140
    --------------------------------------------
      LOOP:  cpu time   39.1732: real time   39.3820

 eigenvalue-minimisations  :  7550
 total energy-change (2. order) :-0.4433939E+01  (-0.3846406E-01)
 number of electron     433.0000223 magnetization       4.6390629
 augmentation part       10.2298472 magnetization       3.6681779

 Broyden mixing:
  rms(total) = 0.12055E+00    rms(broyden)= 0.12054E+00
  rms(prec ) = 0.12272E+00
  weight for this iteration     100.00

 eigenvalues of (default mixing * dielectric matrix)
  average eigenvalue GAMMA=   2.8561
 15.0956  8.0426  2.6580  2.6580  1.8633  1.1394  1.1394  1.0490  0.7866  0.7241
  0.7241  0.6163  0.6329

 Free energy of the ion-electron system (eV)
  ---------------------------------------------------
  alpha Z        PSCENC =       106.58810953
  Ewald energy   TEWEN  =    182480.53535832
  -Hartree energ DENC   =   -195326.75764488
  -exchange      EXHF   =         0.00000000
  -V(xc)+E(xc)   XCENC  =      1474.75662210
  PAW double counting   =     44817.54171996   -44882.76706573
  entropy T*S    EENTRO =        -0.00857195
  eigenvalues    EBANDS =     -5184.76549245
  atomic energy  EATOM  =     15506.18949415
  Solvation  Ediel_sol  =         0.00000000
  ---------------------------------------------------
  free energy    TOTEN  =     -1008.68747095 eV

  energy without entropy =    -1008.67889900  energy(sigma->0) =    -1008.68318497


--------------------------------------------------------------------------------------------------------




--------------------------------------- Iteration      1(  19)  ---------------------------------------


    POTLOK:  cpu time    0.2498: real time    0.2510
    SETDIJ:  cpu time    0.0139: real time    0.0139
     EDDAV:  cpu time   38.2666: real time   38.4720
       DOS:  cpu time    0.0012: real time    0.0012
    CHARGE:  cpu time    1.0378: real time    1.0431
    MIXING:  cpu time    0.0161: real time    0.0162
    --------------------------------------------
      LOOP:  cpu time   39.5854: real time   39.7975

 eigenvalue-minimisations  :  7670
 total energy-change (2. order) :-0.2008622E+01  (-0.8533070E-02)
 number of electron     433.0000223 magnetization       2.2632349
 augmentation part       10.2299186 magnetization       1.2967845

 Broyden mixing:
  rms(total) = 0.77912E-01    rms(broyden)= 0.77907E-01
  rms(prec ) = 0.80009E-01
  weight for this iteration     100.00

 eigenvalues of (default mixing * dielectric matrix)
  average eigenvalue GAMMA=   3.0925
 18.5112  8.9012  2.8001  2.8001  2.0223  1.6386  1.1196  1.1196  0.9378  0.7594
  0.7594  0.6831  0.6168  0.6261

 Free energy of the ion-electron system (eV)
  ---------------------------------------------------
  alpha Z        PSCENC =       106.58810953
  Ewald energy   TEWEN  =    182480.53535832
  -Hartree energ DENC   =   -195325.18302871
  -exchange      EXHF   =         0.00000000
  -V(xc)+E(xc)   XCENC  =      1472.86536878
  PAW double counting   =     44649.43649363   -44714.66782944
  entropy T*S    EENTRO =        -0.00857746
  eigenvalues    EBANDS =     -5186.45148210
  atomic energy  EATOM  =     15506.18949415
  Solvation  Ediel_sol  =         0.00000000
  ---------------------------------------------------
  free energy    TOTEN  =     -1010.69609330 eV

  energy without entropy =    -1010.68751584  energy(sigma->0) =    -1010.69180457


--------------------------------------------------------------------------------------------------------




--------------------------------------- Iteration      1(  20)  ---------------------------------------


    POTLOK:  cpu time    0.2513: real time    0.2525
    SETDIJ:  cpu time    0.0141: real time    0.0142
     EDDAV:  cpu time   38.4716: real time   38.6889
       DOS:  cpu time    0.0011: real time    0.0012
    CHARGE:  cpu time    1.0376: real time    1.0429
    MIXING:  cpu time    0.0137: real time    0.0138
    --------------------------------------------
      LOOP:  cpu time   39.7894: real time   40.0135

 eigenvalue-minimisations  :  7700
 total energy-change (2. order) :-0.1806890E+01  (-0.7523424E-02)
 number of electron     433.0000223 magnetization       1.7094156
 augmentation part       10.2269818 magnetization       0.7445087

 Broyden mixing:
  rms(total) = 0.43908E-01    rms(broyden)= 0.43897E-01
  rms(prec ) = 0.45653E-01
  weight for this iteration     100.00

 eigenvalues of (default mixing * dielectric matrix)
  average eigenvalue GAMMA=   3.1698
 20.8258  9.2996  3.3169  2.4459  2.4459  1.6899  1.1426  1.1426  1.0016  0.8466
  0.7414  0.7414  0.6688  0.6142  0.6238

 Free energy of the ion-electron system (eV)
  ---------------------------------------------------
  alpha Z        PSCENC =       106.58810953
  Ewald energy   TEWEN  =    182480.53535832
  -Hartree energ DENC   =   -195339.07328050
  -exchange      EXHF   =         0.00000000
[...]
   -.481E+03 -.942E+01 0.291E+03   0.482E+03 0.947E+01 -.291E+03   -.271E+00 -.577E-01 -.423E-01   0.708E-04 0.101E-03 0.168E-04
   -.481E+03 -.943E+01 0.291E+03   0.482E+03 0.949E+01 -.291E+03   -.270E+00 -.571E-01 -.423E-01   0.675E-04 0.107E-03 0.161E-04
   -.634E+03 0.353E+02 0.245E+03   0.635E+03 -.356E+02 -.245E+03   -.854E+00 0.322E+00 -.464E-01   0.224E-03 -.202E-03 0.930E-04
   -.634E+03 0.353E+02 0.245E+03   0.635E+03 -.356E+02 -.245E+03   -.853E+00 0.322E+00 -.500E-01   0.229E-03 -.207E-03 0.923E-04
   -.817E+00 0.103E+01 0.367E+03   0.822E+00 -.102E+01 -.367E+03   -.451E-02 -.193E-01 -.286E-01   -.152E-03 -.233E-04 -.178E-03
   -.812E+00 0.102E+01 0.367E+03   0.816E+00 -.101E+01 -.367E+03   -.374E-02 -.204E-01 -.300E-01   -.154E-03 -.289E-04 -.180E-03
   -.257E+03 0.163E+01 0.344E+03   0.257E+03 -.161E+01 -.344E+03   -.203E-01 -.179E-01 -.336E-01   -.343E-03 0.184E-04 -.795E-04
   -.257E+03 0.161E+01 0.344E+03   0.257E+03 -.159E+01 -.344E+03   -.197E-01 -.156E-01 -.326E-01   -.343E-03 0.148E-04 -.784E-04
   -.354E+03 0.711E+00 0.323E+03   0.354E+03 -.755E+00 -.323E+03   -.168E+00 0.451E-01 -.372E-01   -.151E-03 -.146E-03 -.343E-04
   -.354E+03 0.706E+00 0.323E+03   0.354E+03 -.750E+00 -.323E+03   -.168E+00 0.460E-01 -.374E-01   -.157E-03 -.145E-03 -.345E-04
   -.811E+02 -.312E+00 -.365E+03   0.812E+02 0.302E+00 0.365E+03   -.216E-01 0.369E-02 0.191E-01   -.205E-05 -.781E-04 0.160E-03
   -.812E+02 -.322E+00 -.365E+03   0.812E+02 0.313E+00 0.365E+03   -.216E-01 0.442E-02 0.193E-01   0.762E-05 -.802E-04 0.161E-03
   -.167E+03 -.941E+00 -.357E+03   0.167E+03 0.926E+00 0.357E+03   -.127E-01 0.848E-02 0.293E-01   -.575E-04 0.602E-04 0.124E-03
   -.167E+03 -.943E+00 -.357E+03   0.167E+03 0.928E+00 0.357E+03   -.125E-01 0.837E-02 0.280E-01   -.596E-04 0.645E-04 0.124E-03
   -.481E+03 -.968E+01 -.291E+03   0.481E+03 0.973E+01 0.291E+03   -.269E+00 -.585E-01 0.480E-01   0.649E-04 0.917E-04 -.161E-04
   -.481E+03 -.968E+01 -.291E+03   0.481E+03 0.973E+01 0.291E+03   -.269E+00 -.588E-01 0.462E-01   0.588E-04 0.902E-04 -.149E-04
   -.634E+03 0.357E+02 -.244E+03   0.635E+03 -.361E+02 0.244E+03   -.848E+00 0.323E+00 0.228E-01   0.221E-03 -.188E-03 -.938E-04
   -.634E+03 0.357E+02 -.244E+03   0.635E+03 -.361E+02 0.244E+03   -.848E+00 0.323E+00 0.241E-01   0.221E-03 -.194E-03 -.940E-04
   -.818E+00 0.102E+01 -.367E+03   0.823E+00 -.101E+01 0.367E+03   -.373E-02 -.220E-01 0.211E-01   -.142E-03 -.205E-04 0.178E-03
   -.810E+00 0.103E+01 -.367E+03   0.814E+00 -.101E+01 0.367E+03   -.441E-02 -.224E-01 0.233E-01   -.144E-03 -.281E-04 0.178E-03
   -.257E+03 0.158E+01 -.344E+03   0.257E+03 -.157E+01 0.344E+03   -.272E-01 -.210E-01 0.221E-01   -.335E-03 0.149E-04 0.801E-04
   -.257E+03 0.157E+01 -.344E+03   0.257E+03 -.155E+01 0.344E+03   -.266E-01 -.194E-01 0.229E-01   -.336E-03 0.181E-04 0.795E-04
   -.354E+03 0.816E+00 -.323E+03   0.354E+03 -.860E+00 0.323E+03   -.165E+00 0.421E-01 0.319E-01   -.164E-03 -.137E-03 0.344E-04
   -.354E+03 0.810E+00 -.323E+03   0.354E+03 -.852E+00 0.323E+03   -.164E+00 0.425E-01 0.315E-01   -.162E-03 -.135E-03 0.347E-04
   -.634E+03 -.357E+02 0.244E+03   0.635E+03 0.361E+02 -.244E+03   -.849E+00 -.323E+00 -.247E-01   0.221E-03 0.191E-03 0.931E-04
   -.634E+03 -.357E+02 0.244E+03   0.635E+03 0.361E+02 -.244E+03   -.848E+00 -.324E+00 -.221E-01   0.224E-03 0.196E-03 0.924E-04
   -.817E+00 -.103E+01 0.367E+03   0.821E+00 0.101E+01 -.367E+03   -.377E-02 0.223E-01 -.238E-01   -.145E-03 0.253E-04 -.177E-03
   -.809E+00 -.102E+01 0.367E+03   0.813E+00 0.100E+01 -.367E+03   -.449E-02 0.215E-01 -.209E-01   -.147E-03 0.283E-04 -.179E-03
   -.812E+02 0.310E+00 0.365E+03   0.812E+02 -.300E+00 -.365E+03   -.224E-01 -.308E-02 -.197E-01   -.259E-05 0.792E-04 -.160E-03
   -.812E+02 0.324E+00 0.365E+03   0.812E+02 -.315E+00 -.365E+03   -.224E-01 -.377E-02 -.192E-01   0.146E-05 0.766E-04 -.160E-03
   -.354E+03 -.817E+00 0.323E+03   0.354E+03 0.862E+00 -.323E+03   -.165E+00 -.417E-01 -.313E-01   -.158E-03 0.135E-03 -.345E-04
   -.354E+03 -.816E+00 0.323E+03   0.354E+03 0.859E+00 -.323E+03   -.164E+00 -.422E-01 -.318E-01   -.163E-03 0.136E-03 -.345E-04
   -.481E+03 0.969E+01 0.291E+03   0.481E+03 -.974E+01 -.291E+03   -.269E+00 0.584E-01 -.480E-01   0.659E-04 -.899E-04 0.154E-04
   -.481E+03 0.967E+01 0.291E+03   0.481E+03 -.972E+01 -.291E+03   -.270E+00 0.598E-01 -.457E-01   0.632E-04 -.946E-04 0.145E-04
   -.167E+03 0.941E+00 0.357E+03   0.167E+03 -.925E+00 -.357E+03   -.120E-01 -.871E-02 -.281E-01   -.611E-04 -.606E-04 -.123E-03
   -.167E+03 0.933E+00 0.357E+03   0.167E+03 -.917E+00 -.357E+03   -.124E-01 -.807E-02 -.298E-01   -.575E-04 -.639E-04 -.123E-03
   -.257E+03 -.158E+01 0.344E+03   0.257E+03 0.156E+01 -.344E+03   -.270E-01 0.217E-01 -.223E-01   -.333E-03 -.164E-04 -.796E-04
   -.257E+03 -.159E+01 0.344E+03   0.257E+03 0.157E+01 -.344E+03   -.269E-01 0.203E-01 -.232E-01   -.335E-03 -.139E-04 -.788E-04
   -.194E+03 -.188E+02 0.498E+02   0.199E+03 0.215E+02 -.498E+02   -.509E+01 -.267E+01 -.414E-01   0.530E-04 0.652E-04 0.467E-04
   -.194E+03 -.188E+02 0.498E+02   0.199E+03 0.215E+02 -.498E+02   -.509E+01 -.267E+01 -.422E-01   0.541E-04 0.658E-04 0.467E-04
   -.194E+03 -.189E+02 -.498E+02   0.199E+03 0.216E+02 0.498E+02   -.509E+01 -.268E+01 0.575E-01   0.489E-04 0.630E-04 -.470E-04
   -.194E+03 -.189E+02 -.498E+02   0.199E+03 0.216E+02 0.498E+02   -.509E+01 -.268E+01 0.565E-01   0.497E-04 0.634E-04 -.469E-04
   -.194E+03 0.189E+02 0.498E+02   0.199E+03 -.216E+02 -.498E+02   -.509E+01 0.268E+01 -.569E-01   0.492E-04 -.631E-04 0.467E-04
   -.194E+03 0.189E+02 0.498E+02   0.199E+03 -.216E+02 -.498E+02   -.509E+01 0.268E+01 -.570E-01   0.505E-04 -.639E-04 0.467E-04
   -.194E+03 0.188E+02 -.498E+02   0.199E+03 -.215E+02 0.498E+02   -.509E+01 0.267E+01 0.409E-01   0.530E-04 -.652E-04 -.471E-04
   -.194E+03 0.188E+02 -.498E+02   0.199E+03 -.215E+02 0.498E+02   -.509E+01 0.267E+01 0.425E-01   0.530E-04 -.651E-04 -.471E-04
   0.193E+03 0.191E+02 -.502E+02   -.198E+03 -.217E+02 0.502E+02   0.509E+01 0.267E+01 0.409E-01   0.123E-05 0.144E-04 -.635E-04
   0.193E+03 0.185E+02 -.503E+02   -.198E+03 -.212E+02 0.503E+02   0.508E+01 0.267E+01 0.397E-01   -.362E-05 0.363E-04 -.472E-04
   0.193E+03 0.191E+02 0.504E+02   -.198E+03 -.218E+02 -.503E+02   0.507E+01 0.268E+01 -.538E-01   -.265E-05 0.136E-04 0.385E-04
   0.193E+03 0.187E+02 0.502E+02   -.199E+03 -.214E+02 -.501E+02   0.509E+01 0.268E+01 -.565E-01   0.146E-04 0.349E-04 0.685E-04
   0.193E+03 -.188E+02 -.505E+02   -.198E+03 0.215E+02 0.504E+02   0.507E+01 -.268E+01 0.498E-01   -.351E-05 -.299E-04 -.297E-04
   0.193E+03 -.189E+02 -.501E+02   -.199E+03 0.216E+02 0.501E+02   0.509E+01 -.268E+01 0.573E-01   0.151E-04 -.246E-04 -.763E-04
   0.193E+03 -.186E+02 0.502E+02   -.198E+03 0.213E+02 -.501E+02   0.509E+01 -.267E+01 -.407E-01   0.125E-04 -.342E-04 0.660E-04
   0.193E+03 -.191E+02 0.503E+02   -.198E+03 0.217E+02 -.503E+02   0.508E+01 -.267E+01 -.396E-01   -.109E-04 -.950E-05 0.405E-04
   0.111E+03 -.143E-01 -.463E-02   -.111E+03 0.296E-01 0.155E-01   -.551E-01 -.142E-01 -.115E-01   0.564E-03 0.261E-05 -.463E-06
 -----------------------------------------------------------------------------------------------
   0.663E+00 0.719E-02 0.314E-01   0.239E-11 -.608E-13 0.273E-11   -.653E+00 -.636E-02 -.306E-01   -.592E-02 0.738E-05 -.505E-04


 POSITION                                       TOTAL-FORCE (eV/Angst)
 -----------------------------------------------------------------------------------
     17.37676      0.02542     12.12144         0.000492      0.001449      0.004710
     17.37681      4.29895     12.12152        -0.002556     -0.000944      0.003273
     16.14538      2.16183     12.12266         0.000300      0.004695     -0.002701
     16.14538      6.43536     12.12268        -0.002698      0.001504     -0.002573
     12.44189      0.02290     12.12382         0.000208      0.003532      0.002444
     12.44179      4.29640     12.12399         0.000017      0.010374      0.003330
     11.23502      2.19232     12.13004         0.032527      0.022842      0.001032
     11.23508      6.46575     12.12967        -0.000581      0.004655      0.003209
     14.91222      0.02978     12.12315        -0.000813      0.001209     -0.000161
     14.91215      4.30324     12.12307         0.000677      0.001968      0.002218
     13.67327      2.16294     12.12263         0.002409      0.002927      0.000853
     13.67340      6.43642     12.12256        -0.000232      0.002595     -0.000972
     17.37678      8.52144     15.68159        -0.003819      0.001221     -0.003977
     17.37672      4.24800     15.68161        -0.000014      0.000813     -0.004269
     16.14534      2.11159     15.68036        -0.002099     -0.001722      0.003227
     16.14531      6.38504     15.68039        -0.000784     -0.002005      0.002056
     12.44177      8.52402     15.67918         0.000899     -0.001657     -0.001454
     12.44179      4.25057     15.67915        -0.000693     -0.008559     -0.003251
     11.23495      2.08111     15.67333         0.048188     -0.026739      0.002327
     11.23506      6.35469     15.67319        -0.006552     -0.008275     -0.004913
     14.91211      8.51712     15.67991         0.001285      0.000860     -0.000896
     14.91213      4.24367     15.67992        -0.000661     -0.002063     -0.001136
     13.67320      2.11050     15.68044         0.000981     -0.003013     -0.000720
     13.67332      6.38399     15.68044         0.000656     -0.003253      0.000947
     17.37673      1.45102     12.12132        -0.000971      0.005822      0.002678
     17.37664      5.72452     12.12131         0.002932      0.005469      0.002976
     16.14524      3.58891     12.12250         0.002850      0.004406     -0.003861
     16.14524      7.86239     12.12244         0.001515      0.005425     -0.002633
     12.44214      1.45692     12.12388        -0.002483     -0.007760      0.000592
     12.44222      5.73041     12.12371         0.001195     -0.000881     -0.000208
     11.23450      3.56097     12.12895         0.024249     -0.020209     -0.000503
     11.23456      7.83444     12.12857        -0.002086     -0.001096      0.000726
     14.91211      1.44879     12.12253        -0.000666      0.004349      0.002121
     14.91213      5.72230     12.12259         0.002346      0.002405      0.000918
     13.67309      3.58987     12.12263        -0.002479      0.001504      0.000536
     13.67320      7.86337     12.12256        -0.001971      0.000873     -0.000791
     11.23448      0.71249     15.67434        -0.003454      0.007902     -0.003105
     11.23446      4.98598     15.67435         0.017140      0.009720      0.001247
     17.37666      2.82247     15.68173        -0.000386     -0.009194     -0.002357
     17.37661      7.09587     15.68178         0.001652     -0.006172     -0.003293
     13.67308      0.68360     15.68043        -0.001730     -0.003775      0.000422
     13.67309      4.95704     15.68042        -0.001144     -0.000171      0.000295
     12.44205      2.81653     15.67928        -0.000265      0.011254     -0.002882
     12.44215      7.09003     15.67932         0.001186     -0.002333      0.000479
     16.14519      0.68455     15.68061         0.002912     -0.007054      0.002530
     16.14519      4.95801     15.68055         0.001450     -0.005960      0.003817
     14.91200      2.82464     15.68050         0.001321     -0.003265     -0.001908
     14.91208      7.09808     15.68041        -0.000143     -0.003451     -0.000644
     19.84672      8.52144     15.68163         0.000280      0.000719     -0.004479
     19.84668      4.24793     15.68157         0.001573      0.002187     -0.003606
     21.07811      6.38506     15.68040         0.000582     -0.002966      0.002552
     21.07810      2.11157     15.68039         0.000968     -0.002567      0.002782
     24.78151      8.52398     15.67930        -0.000491     -0.002176     -0.003799
     24.78159      4.25054     15.67913        -0.003626     -0.002637     -0.001984
     25.98840      6.35459     15.67323         0.001260     -0.003650     -0.003424
     25.98841      2.08115     15.67339         0.001761     -0.007758     -0.003074
     18.61171      6.38266     15.68156         0.000422      0.004219     -0.001237
     18.61170      2.10919     15.68158         0.001113      0.004472     -0.002484
     22.31122      8.51714     15.67992         0.001909     -0.003073      0.000235
     22.31125      4.24362     15.67997         0.001120     -0.002324     -0.001356
     23.55007      6.38392     15.68049         0.000459     -0.000481      0.001218
     23.55012      2.11046     15.68052         0.000966     -0.002505      0.001623
     19.84671      0.02547     12.12147         0.002059     -0.000813      0.004234
     19.84676      4.29892     12.12148         0.000262     -0.000218      0.004025
     21.07819      6.43532     12.12269         0.000891      0.001763     -0.003039
     21.07816      2.16185     12.12266         0.000724      0.001088     -0.002074
     24.78165      0.02288     12.12386        -0.003567      0.001172      0.002905
     24.78163      4.29633     12.12387        -0.001610      0.004280      0.002635
     25.98847      6.46577     12.12967         0.000286      0.004186      0.004116
     25.98845      2.19224     12.12990         0.002591      0.006715      0.001969
     18.61178      6.43768     12.12148        -0.000268     -0.003544      0.002404
     18.61178      2.16424     12.12155         0.000957     -0.003074      0.001443
     22.31131      0.02983     12.12313         0.000892     -0.000745      0.000326
     22.31130      4.30321     12.12309         0.001962      0.002957      0.001121
     23.55017      6.43645     12.12258        -0.000108     -0.000002     -0.001708
     23.55018      2.16294     12.12259         0.001861      0.001899     -0.001870
     19.84680      7.09587     15.68178        -0.000933     -0.006079     -0.003083
     19.84678      2.82237     15.68175        -0.001270     -0.004865     -0.002881
     21.07824      4.95799     15.68056        -0.004483     -0.006996      0.003730
     21.07823      0.68453     15.68063        -0.004125     -0.006197      0.002706
     24.78122      7.08995     15.67929        -0.003686     -0.000988      0.000446
     24.78126      2.81650     15.67937        -0.003315     -0.000482     -0.000956
     25.98896      4.98593     15.67433         0.003030      0.001140     -0.001315
     25.98894      0.71243     15.67450         0.001767      0.002540     -0.000284
     18.61171      4.96148     15.68190         0.000612     -0.005644     -0.001682
     18.61174      0.68802     15.68181        -0.000686     -0.006455     -0.000052
     22.31135      7.09812     15.68052        -0.002573     -0.003766     -0.001073
     22.31140      2.82457     15.68050        -0.003005     -0.000980     -0.000676
     23.55024      4.95701     15.68045         0.004548     -0.002335      0.001735
     23.55021      0.68353     15.68051         0.004940     -0.000620      0.001374
     25.98902      7.83442     12.12867         0.002135     -0.000284      0.000073
     25.98902      3.56096     12.12867         0.002899     -0.003140      0.001666
     18.61174      7.85887     12.12126         0.000519      0.005880     -0.000137
     18.61178      3.58546     12.12119        -0.000482      0.004017      0.001923
     19.84687      5.72448     12.12132        -0.000901      0.006750      0.002735
     19.84685      1.45104     12.12131        -0.001637      0.005351      0.003105
     23.55031      7.86334     12.12258         0.003666      0.003294     -0.001249
     23.55032      3.58986     12.12259         0.004172      0.001207     -0.001517
     24.78130      5.73041     12.12375        -0.003216     -0.000014     -0.000361
     24.78134      1.45687     12.12373        -0.004784      0.002919      0.001312
     21.07827      7.86238     12.12244        -0.002562      0.006901     -0.002724
     21.07826      3.58887     12.12251        -0.003327      0.007459     -0.003967
     22.31146      5.72224     12.12254        -0.002944      0.004323      0.001150
     22.31147      1.44882     12.12259        -0.003275      0.003534      0.000367
     26.94668      8.35141     12.13677        -0.001237      0.002220     -0.000881
     26.94676      4.07789     12.13693        -0.002539      0.002155     -0.001095
     26.94532      6.87293     15.66297        -0.001868     -0.004797      0.001389
     26.94535      2.59941     15.66329        -0.001373     -0.004218      0.001248
     26.94537      5.94749     12.13982        -0.000446      0.003654     -0.001419
     26.94538      1.67392     12.14008        -0.001606      0.004841     -0.001128
     26.94662      0.19543     15.66648        -0.002134     -0.001870      0.000782
     26.94667      4.46901     15.66603        -0.001692     -0.002614      0.001136
     10.27689      0.19546     15.66620        -0.015041     -0.004283     -0.002979
     10.27680      4.46901     15.66610        -0.026664     -0.010608     -0.001918
     10.27814      1.67396     12.14050        -0.034396     -0.006960      0.000442
     10.27822      5.94737     12.13971        -0.007577      0.001081      0.001200
     10.27807      2.59942     15.66309        -0.042954      0.011794      0.002257
     10.27817      6.87307     15.66299        -0.003501     -0.004747     -0.000726
     10.27693      8.35148     12.13658        -0.008211      0.005603      0.001277
     10.27683      4.07787     12.13740        -0.033903      0.014070      0.001294
      7.27830      2.83137     13.90123         0.078724      0.000870     -0.000457
 -----------------------------------------------------------------------------------
    total drift:                                0.004445      0.000837      0.000819


--------------------------------------------------------------------------------------------------------



  FREE ENERGIE OF THE ION-ELECTRON SYSTEM (eV)
  ---------------------------------------------------
  free  energy   TOTEN  =     -1019.20947111 eV

  energy  without entropy=    -1019.20136032  energy(sigma->0) =    -1019.20541572



--------------------------------------------------------------------------------------------------------


    POTLOK:  cpu time    0.3231: real time    0.3466


--------------------------------------------------------------------------------------------------------


 stress matrix after NEB project (eV)
    -11.97862      0.00432      0.00132
      0.00432      6.89858     -0.13973
      0.00132     -0.13973    -15.85799
  FORCES: max atom, RMS     0.078730    0.013204
  FORCE total and by dimension    0.145248    0.078724
  Stress total and by dimension   21.037884   15.857990
 writing wavefunctions
     LOOP+:  cpu time 1424.8513: real time 1433.7264
    4ORBIT:  cpu time    0.0000: real time    0.0000

 total amount of memory used by VASP MPI-rank0   315295. kBytes
=======================================================================

   base      :      30000. kBytes
   nonlr-proj:       4967. kBytes
   fftplans  :      16574. kBytes
   grid      :      43462. kBytes
   one-center:        190. kBytes
   wavefun   :     220102. kBytes

  
  
 General timing and accounting informations for this job:
 ========================================================
  
                  Total CPU time used (sec):     1460.648
                            User time (sec):     1453.701
                          System time (sec):        6.948
                         Elapsed time (sec):     1471.746
  
                   Maximum memory used (kb):      491840.
                   Average memory used (kb):           0.
  
                          Minor page faults:       498023
                          Major page faults:            2
                 Voluntary context switches:        15369
