 vasp.5.4.4.18Apr17-6-g9f103f2a35 (build Sep 10 2024 21:01:58) complex           
 executed on             LinuxGNU date 2024.09.14  13:00:15
 running on   40 total cores
 distrk:  each k-point on   40 cores,    1 groups
 distr:  one band on NCORES_PER_BAND=   4 cores,   10 groups


--------------------------------------------------------------------------------------------------------


 INCAR:
 POTCAR:    PAW_PBE C 08Apr2002                   
 POTCAR:    PAW_PBE Li 17Jan2003                  
 POTCAR:    PAW_PBE C 08Apr2002                   
   SHA256 =  253f7b50bb8d59471dbedb8285d89021f4a42ed1a2c5d38a03a736e69125dd95 C/
   COPYR  = (c) Copyright 08Apr2002 Georg Kresse                                
   COPYR  = This file is part of the software VASP. Any use, copying, and all ot
   COPYR  = If you do not have a valid VASP license, you may not use, copy or di
   VRHFIN =C: s2p2                                                              
   LEXCH  = PE                                                                  
   EATOM  =   147.1560 eV,   10.8157 Ry                                         
                                                                                
   TITEL  = PAW_PBE C 08Apr2002                                                 
   LULTRA =        F    use ultrasoft PP ?                                      
   IUNSCR =        1    unscreen: 0-lin 1-nonlin 2-no                           
   RPACOR =    1.200    partial core radius                                     
   POMASS =   12.011; ZVAL   =    4.000    mass and valenz                      
   RCORE  =    1.500    outmost cutoff radius                                   
   RWIGS  =    1.630; RWIGS  =    0.863    wigner-seitz radius (au A)           
   ENMAX  =  400.000; ENMIN  =  300.000 eV                                      
   ICORE  =        2    local potential                                         
   LCOR   =        T    correct aug charges                                     
   LPAW   =        T    paw PP                                                  
   EAUG   =  644.873                                                            
   DEXC   =    0.000                                                            
   RMAX   =    1.529    core radius for proj-oper                               
   RAUG   =    1.300    factor for augmentation sphere                          
   RDEP   =    1.501    radius for radial grids                                 
   RDEPT  =    1.300    core radius for aug-charge                              
                                                                                
   Atomic configuration                                                         
    4 entries                                                                   
     n  l   j            E        occ.                                          
     1  0  0.50      -273.3789   2.0000                                         
     2  0  0.50       -13.7508   2.0000                                         
     2  1  0.50        -5.2854   2.0000                                         
     3  2  1.50        -5.4423   0.0000                                         
   Description                                                                  
     l       E           TYP  RCUT    TYP  RCUT                                 
     0    -13.7508458     23  1.200                                             
     0     -8.2022199     23  1.200                                             
     1     -5.2854383     23  1.500                                             
     1     34.0145650     23  1.500                                             
     2     -5.4423304      7  1.500                                             
  local pseudopotential read in
  partial core-charges read in
  partial kinetic energy density read in
  atomic valenz-charges read in
  non local Contribution for L=           0  read in
    real space projection operators read in
  non local Contribution for L=           0  read in
    real space projection operators read in
  non local Contribution for L=           1  read in
    real space projection operators read in
  non local Contribution for L=           1  read in
    real space projection operators read in
    PAW grid and wavefunctions read in

   number of l-projection  operators is LMAX  =           4
   number of lm-projection operators is LMMAX =           8

 POTCAR:    PAW_PBE Li 17Jan2003                  
   SHA256 =  3d9d9bfd1dd25b20a3b919cb3191e6ef627605783dc2e149b9290ff31c32aa6e Li
   COPYR  = (c) Copyright 17Jan2003 Georg Kresse                                
   COPYR  = This file is part of the software VASP. Any use, copying, and all ot
   COPYR  = If you do not have a valid VASP license, you may not use, copy or di
   VRHFIN =Li: s1p0                                                             
   LEXCH  = PE                                                                  
   EATOM  =     5.3001 eV,    0.3895 Ry                                         
                                                                                
   TITEL  = PAW_PBE Li 17Jan2003                                                
   LULTRA =        F    use ultrasoft PP ?                                      
   IUNSCR =        1    unscreen: 0-lin 1-nonlin 2-no                           
   RPACOR =    1.500    partial core radius                                     
   POMASS =    7.010; ZVAL   =    1.000    mass and valenz                      
   RCORE  =    2.050    outmost cutoff radius                                   
   RWIGS  =    2.600; RWIGS  =    1.376    wigner-seitz radius (au A)           
   ENMAX  =  140.000; ENMIN  =  100.000 eV                                      
   ICORE  =        2    local potential                                         
   LCOR   =        T    correct aug charges                                     
   LPAW   =        T    paw PP                                                  
   EAUG   =  331.638                                                            
   DEXC   =    0.000                                                            
   RMAX   =    2.098    core radius for proj-oper                               
   RAUG   =    1.300    factor for augmentation sphere                          
   RDEP   =    2.094    radius for radial grids                                 
   RDEPT  =    1.810    core radius for aug-charge                              
                                                                                
   Atomic configuration                                                         
    4 entries                                                                   
     n  l   j            E        occ.                                          
     1  0  0.50       -51.8549   2.0000                                         
     2  0  0.50        -2.8742   1.0000                                         
     2  1  0.50        -1.3606   0.0000                                         
     3  2  1.50        -1.3606   0.0000                                         
   Description                                                                  
     l       E           TYP  RCUT    TYP  RCUT                                 
     0     -2.8742052     23  2.050                                             
     0     27.2116520     23  2.050                                             
     1     -1.3605826     23  2.050                                             
     2     -1.3605826     23  2.050                                             
  local pseudopotential read in
  partial core-charges read in
  partial kinetic energy density read in
  atomic valenz-charges read in
  non local Contribution for L=           0  read in
    real space projection operators read in
  non local Contribution for L=           0  read in
    real space projection operators read in
  non local Contribution for L=           1  read in
    real space projection operators read in
    PAW grid and wavefunctions read in

   number of l-projection  operators is LMAX  =           3
   number of lm-projection operators is LMMAX =           5

 Optimization of the real space projectors (new method)

 maximal supplied QI-value         = 25.13
 optimisation between [QCUT,QGAM] = [ 10.05, 20.36] = [ 28.30,116.06] Ry 
 Optimized for a Real-space Cutoff    1.30 Angstroem

   l    n(q)    QCUT    max X(q) W(low)/X(q) W(high)/X(q)  e(spline) 
   0      8    10.053   115.676    0.49E-03    0.72E-03    0.18E-06
   0      8    10.053    87.132    0.49E-03    0.71E-03    0.18E-06
   1      7    10.053     4.429    0.32E-03    0.31E-03    0.18E-06
   1      7    10.053     2.733    0.23E-03    0.19E-03    0.20E-06
 Optimization of the real space projectors (new method)

 maximal supplied QI-value         = 18.33
 optimisation between [QCUT,QGAM] = [ 10.08, 20.35] = [ 28.46,115.93] Ry 
 Optimized for a Real-space Cutoff    1.16 Angstroem

   l    n(q)    QCUT    max X(q) W(low)/X(q) W(high)/X(q)  e(spline) 
   0      7    10.082    33.825    0.44E-03    0.14E-03    0.78E-07
   0      7    10.082     8.944    0.33E-03    0.12E-03    0.56E-07
   1      6    10.082     4.214    0.33E-03    0.37E-03    0.39E-07
  PAW_PBE C 08Apr2002                   :
 energy of atom  1       EATOM= -147.1560
 kinetic energy error for atom=    0.0288 (will be added to EATOM!!)
  PAW_PBE Li 17Jan2003                  :
 energy of atom  2       EATOM=   -5.3001
 kinetic energy error for atom=    0.0000 (will be added to EATOM!!)


 POSCAR: C4                                      
  positions in cartesian coordinates
  No initial velocities read in
 exchange correlation table for  LEXCH =        8
   RHO(1)=    0.500       N(1)  =     2000
   RHO(2)=  100.500       N(2)  =     4000

 VTST: version 3.2, (02/03/18)

 CHAIN: initializing optimizer
 
 OPT: Using VASP QUASI-newton optimizer
 CHAIN: Read ICHAIN            0

 POSCAR: C4                                      
  positions in cartesian coordinates
  No initial velocities read in



--------------------------------------------------------------------------------------------------------


 ion  position               nearest neighbor table
   1  0.000  0.000  0.430-  27 1.42  19 1.42  21 1.42
   2  1.000  0.333  0.430-  20 1.42  25 1.42  19 1.42
   3  1.000  0.667  0.430-  26 1.42  21 1.42  20 1.42
   4  0.333  0.000  0.430-  22 1.42  24 1.42  21 1.42
   5  0.333  0.333  0.430-  23 1.42  19 1.42  22 1.42  37 2.42
   6  0.333  0.667  0.430-  24 1.42  20 1.42  23 1.42
   7  0.667  0.000  0.430-  25 1.42  27 1.42  24 1.42
   8  0.667  0.333  0.430-  26 1.42  22 1.42  25 1.42  37 2.42
   9  0.667  0.667  0.430-  27 1.42  23 1.42  26 1.42  37 2.42
  10  0.000  0.000  0.570-  36 1.42  28 1.42  34 1.42
  11  1.000  0.333  0.570-  29 1.42  35 1.42  34 1.42
  12  1.000  0.667  0.570-  30 1.42  36 1.42  35 1.42
  13  0.333  0.000  0.570-  30 1.42  31 1.42  28 1.42
  14  0.333  0.333  0.570-  28 1.42  32 1.42  29 1.42  37 2.42
  15  0.333  0.667  0.570-  33 1.42  29 1.42  30 1.42
  16  0.667  0.000  0.570-  33 1.42  34 1.42  31 1.42
  17  0.667  0.333  0.570-  35 1.42  32 1.42  31 1.42  37 2.42
  18  0.667  0.667  0.570-  36 1.42  33 1.42  32 1.42  37 2.42
  19  0.111  0.222  0.430-   1 1.42   5 1.42   2 1.42
  20  0.111  0.556  0.430-   2 1.42   6 1.42   3 1.42
  21  0.111  0.889  0.430-   3 1.42   1 1.42   4 1.42
  22  0.444  0.222  0.430-   4 1.42   8 1.42   5 1.42  37 2.42
  23  0.444  0.556  0.430-   5 1.42   9 1.42   6 1.42  37 2.42
  24  0.444  0.889  0.430-   6 1.42   4 1.42   7 1.42
  25  0.778  0.222  0.430-   2 1.42   7 1.42   8 1.42
  26  0.778  0.556  0.430-   8 1.42   3 1.42   9 1.42  37 2.42
  27  0.778  0.889  0.430-   1 1.42   9 1.42   7 1.42
  28  0.222  0.111  0.570-  10 1.42  14 1.42  13 1.42
  29  0.222  0.444  0.570-  11 1.42  15 1.42  14 1.42
  30  0.222  0.778  0.570-  13 1.42  12 1.42  15 1.42
  31  0.556  0.111  0.570-  16 1.42  17 1.42  13 1.42
  32  0.556  0.444  0.570-  17 1.42  14 1.42  18 1.42  37 1.95
  33  0.556  0.778  0.570-  16 1.42  18 1.42  15 1.42
  34  0.889  0.111  0.570-  16 1.42  10 1.42  11 1.42
  35  0.889  0.444  0.570-  17 1.42  11 1.42  12 1.42
  36  0.889  0.778  0.570-  10 1.42  18 1.42  12 1.42
  37  0.556  0.444  0.500-  32 1.95  26 2.42   8 2.42  17 2.42  23 2.42  22 2.42  14 2.42   5 2.42
                             9 2.42  18 2.42

  LATTYP: Found a hexagonal cell.
 ALAT       =     7.4018732118
 C/A-ratio  =     3.7562213088
  
  Lattice vectors:
  
 A1 = (   7.4018740654,   0.0000000000,   0.0000000000)
 A2 = (  -3.7009378863,   6.4102104834,   0.0000000000)
 A3 = (   0.0000000000,   0.0000000000,  27.8030738831)


Analysis of symmetry for initial positions (statically):
=====================================================================
 Subroutine PRICEL returns:
 Original cell was already a primitive cell.
 

 Routine SETGRP: Setting up the symmetry group for a 
 hexagonal supercell.


 Subroutine GETGRP returns: Found  6 space group operations
 (whereof  2 operations were pure point group operations)
 out of a pool of 24 trial point group operations.


The static configuration has the point symmetry C_1h.
 The point group associated with its full space group is C_3v.


Analysis of symmetry for dynamics (positions and initial velocities):
=====================================================================
 Subroutine PRICEL returns:
 Original cell was already a primitive cell.
 

 Routine SETGRP: Setting up the symmetry group for a 
 hexagonal supercell.


 Subroutine GETGRP returns: Found  6 space group operations
 (whereof  2 operations were pure point group operations)
 out of a pool of 24 trial point group operations.


The dynamic configuration has the point symmetry C_1h.
 The point group associated with its full space group is C_3v.


 Subroutine INISYM returns: Found  6 space group operations
 (whereof  2 operations are pure point group operations),
 and found     1 'primitive' translations



 KPOINTS: Regular k-point mesh                    

Automatic generation of k-mesh.
Space group operators:
 irot       det(A)        alpha          n_x          n_y          n_z        tau_x        tau_y        tau_z
    1     1.000000     0.000000     1.000000     0.000000     0.000000     0.000000     0.000000     0.000000
    2    -1.000000   180.000000    -0.500000    -0.866025     0.000000     0.000000     0.000000     0.000000
    3     1.000000   120.000000     0.000000     0.000000    -1.000000     0.000000     0.333333     0.000000
    4     1.000000   120.000000     0.000000     0.000000     1.000000     0.666667     0.000000     0.000000
    5    -1.000000   180.000000     1.000000     0.000000     0.000000     0.666667     0.000000     0.000000
    6    -1.000000   180.000000     0.500000    -0.866025     0.000000    -0.000000     0.333333     0.000000
 
 Subroutine IBZKPT returns following result:
 ===========================================
 
 Found     27 irreducible k-points:
 
 Following reciprocal coordinates:
            Coordinates               Weight
  0.000000  0.000000  0.000000      1.000000
  0.066667  0.000000  0.000000      6.000000
  0.133333  0.000000  0.000000      6.000000
  0.200000  0.000000  0.000000      6.000000
  0.266667  0.000000  0.000000      6.000000
  0.333333  0.000000  0.000000      6.000000
  0.400000  0.000000  0.000000      6.000000
  0.466667  0.000000  0.000000      6.000000
  0.066667  0.066667  0.000000      6.000000
  0.133333  0.066667  0.000000     12.000000
  0.200000  0.066667  0.000000     12.000000
  0.266667  0.066667  0.000000     12.000000
  0.333333  0.066667  0.000000     12.000000
  0.400000  0.066667  0.000000     12.000000
  0.466667  0.066667  0.000000      6.000000
  0.133333  0.133333  0.000000      6.000000
  0.200000  0.133333  0.000000     12.000000
  0.266667  0.133333  0.000000     12.000000
  0.333333  0.133333  0.000000     12.000000
  0.400000  0.133333  0.000000     12.000000
  0.200000  0.200000  0.000000      6.000000
  0.266667  0.200000  0.000000     12.000000
  0.333333  0.200000  0.000000     12.000000
  0.400000  0.200000  0.000000      6.000000
  0.266667  0.266667  0.000000      6.000000
  0.333333  0.266667  0.000000     12.000000
  0.333333  0.333333  0.000000      2.000000
 
 Following cartesian coordinates:
            Coordinates               Weight
  0.000000  0.000000  0.000000      1.000000
  0.009007  0.005200  0.000000      6.000000
  0.018013  0.010400  0.000000      6.000000
  0.027020  0.015600  0.000000      6.000000
  0.036027  0.020800  0.000000      6.000000
  0.045034  0.026000  0.000000      6.000000
  0.054040  0.031200  0.000000      6.000000
  0.063047  0.036400  0.000000      6.000000
  0.009007  0.015600  0.000000      6.000000
  0.018013  0.020800  0.000000     12.000000
  0.027020  0.026000  0.000000     12.000000
  0.036027  0.031200  0.000000     12.000000
  0.045034  0.036400  0.000000     12.000000
  0.054040  0.041600  0.000000     12.000000
  0.063047  0.046800  0.000000      6.000000
  0.018013  0.031200  0.000000      6.000000
  0.027020  0.036400  0.000000     12.000000
  0.036027  0.041600  0.000000     12.000000
  0.045034  0.046800  0.000000     12.000000
  0.054040  0.052000  0.000000     12.000000
  0.027020  0.046800  0.000000      6.000000
  0.036027  0.052000  0.000000     12.000000
  0.045034  0.057200  0.000000     12.000000
  0.054040  0.062400  0.000000      6.000000
  0.036027  0.062400  0.000000      6.000000
  0.045034  0.067600  0.000000     12.000000
  0.045034  0.078001  0.000000      2.000000
 


--------------------------------------------------------------------------------------------------------




 Dimension of arrays:
   k-points           NKPTS =     27   k-points in BZ     NKDIM =     27   number of bands    NBANDS=    100
   number of dos      NEDOS =    301   number of ions     NIONS =     37
   non local maximal  LDIM  =      4   non local SUM 2l+1 LMDIM =      8
   total plane-waves  NPLWV = 181440
   max r-space proj   IRMAX =   1319   max aug-charges    IRDMAX=   4600
   dimension x,y,z NGX =    36 NGY =   36 NGZ =  140
   dimension x,y,z NGXF=    72 NGYF=   72 NGZF=  280
   support grid    NGXF=    72 NGYF=   72 NGZF=  280
   ions per type =              36   1
   NGX,Y,Z   is equivalent  to a cutoff of   8.09,  8.09,  8.37 a.u.
   NGXF,Y,Z  is equivalent  to a cutoff of  16.17, 16.17, 16.74 a.u.

 SYSTEM =  unknown system                          
 POSCAR =  C4                                      

 Startparameter for this run:
   NWRITE =      2    write-flag & timer
   PREC   = normal    normal or accurate (medium, high low for compatibility)
   ISTART =      0    job   : 0-new  1-cont  2-samecut
   ICHARG =      2    charge: 1-file 2-atom 10-const
   ISPIN  =      1    spin polarized calculation?
   LNONCOLLINEAR =      F non collinear calculations
   LSORBIT =      F    spin-orbit coupling
   INIWAV =      1    electr: 0-lowe 1-rand  2-diag
   LASPH  =      F    aspherical Exc in radial PAW
   METAGGA=      F    non-selfconsistent MetaGGA calc.

 Electronic Relaxation 1
   ENCUT  =  400.0 eV  29.40 Ry    5.42 a.u.  12.07 12.07 45.34*2*pi/ulx,y,z
   ENINI  =  400.0     initial cutoff
   ENAUG  =  644.9 eV  augmentation charge cutoff
   NELM   =    100;   NELMIN=  2; NELMDL= -5     # of ELM steps 
   EDIFF  = 0.1E-05   stopping-criterion for ELM
   LREAL  =      T    real-space projection
   NLSPLINE    = F    spline interpolate recip. space projectors
   LCOMPAT=      F    compatible to vasp.4.4
   GGA_COMPAT  = T    GGA compatible to vasp.4.4-vasp.4.6
   LMAXPAW     = -100 max onsite density
   LMAXMIX     =    2 max onsite mixed and CHGCAR
   VOSKOWN=      0    Vosko Wilk Nusair interpolation
   ROPT   =   -0.00050  -0.00050
 Ionic relaxation
   EDIFFG = -.1E-01   stopping-criterion for IOM
   NSW    =    200    number of steps for IOM
   NBLOCK =      1;   KBLOCK =    200    inner block; outer block 
   IBRION =      1    ionic relax: 0-MD 1-quasi-New 2-CG
   NFREE  =      0    steps in history (QN), initial steepest desc. (CG)
   ISIF   =      2    stress and relaxation
   IWAVPR =     11    prediction:  0-non 1-charg 2-wave 3-comb
   ISYM   =      2    0-nonsym 1-usesym 2-fastsym
   LCORR  =      T    Harris-Foulkes like correction to forces

   POTIM  = 0.5000    time-step for ionic-motion
   TEIN   =    0.0    initial temperature
   TEBEG  =    0.0;   TEEND  =   0.0 temperature during run
   SMASS  =  -3.00    Nose mass-parameter (am)
   estimated Nose-frequenzy (Omega)   =  0.10E-29 period in steps =****** mass=  -0.125E-26a.u.
   SCALEE = 1.0000    scale energy and forces
   NPACO  =    256;   APACO  = 16.0  distance and # of slots for P.C.
   PSTRESS=    0.0 pullay stress

  Mass of Ions in am
   POMASS =  12.01  7.01
  Ionic Valenz
   ZVAL   =   4.00  1.00
  Atomic Wigner-Seitz radii
   RWIGS  =  -1.00 -1.00
  virtual crystal weights 
   VCA    =   1.00  1.00
   NELECT =     145.0000    total number of electrons
   NUPDOWN=      -1.0000    fix difference up-down

 DOS related values:
   EMIN   =  10.00;   EMAX   =-10.00  energy-range for DOS
   EFERMI =   0.00
   ISMEAR =     0;   SIGMA  =   0.10  broadening in eV -4-tet -1-fermi 0-gaus

 Electronic relaxation 2 (details)
   IALGO  =     38    algorithm
   LDIAG  =      T    sub-space diagonalisation (order eigenvalues)
   LSUBROT=      F    optimize rotation matrix (better conditioning)
   TURBO    =      0    0=normal 1=particle mesh
   IRESTART =      0    0=no restart 2=restart with 2 vectors
   NREBOOT  =      0    no. of reboots
   NMIN     =      0    reboot dimension
   EREF     =   0.00    reference energy to select bands
   IMIX   =      4    mixing-type and parameters
     AMIX     =   0.40;   BMIX     =  1.00
     AMIX_MAG =   1.60;   BMIX_MAG =  1.00
     AMIN     =   0.10
     WC   =   100.;   INIMIX=   1;  MIXPRE=   1;  MAXMIX= -45

 Intra band minimization:
   WEIMIN = 0.0010     energy-eigenvalue tresh-hold
   EBREAK =  0.25E-08  absolut break condition
   DEPER  =   0.30     relativ break condition  

   TIME   =   0.40     timestep for ELM

  volume/ion in A,a.u.               =      35.65       240.60
  Fermi-wavevector in a.u.,A,eV,Ry     =   0.784203  1.481929  8.367237  0.614975
  Thomas-Fermi vector in A             =   1.888288

 Write flags
   LWAVE        =      T    write WAVECAR
   LDOWNSAMPLE  =      F    k-point downsampling of WAVECAR
   LCHARG       =      T    write CHGCAR
   LVTOT        =      F    write LOCPOT, total local potential
   LVHAR        =      F    write LOCPOT, Hartree potential only
   LELF         =      F    write electronic localiz. function (ELF)
   LORBIT       =      0    0 simple, 1 ext, 2 COOP (PROOUT), +10 PAW based schemes


 Dipole corrections
   LMONO  =      F    monopole corrections only (constant potential shift)
   LDIPOL =      F    correct potential (dipole corrections)
   IDIPOL =      0    1-x, 2-y, 3-z, 4-all directions 
   EPSILON=  1.0000000 bulk dielectric constant

 Exchange correlation treatment:
   GGA     =    --    GGA type
   LEXCH   =     8    internal setting for exchange type
   VOSKOWN=      0    Vosko Wilk Nusair interpolation
   LHFCALC =     F    Hartree Fock is set to
   LHFONE  =     F    Hartree Fock one center treatment
   AEXX    =    0.0000 exact exchange contribution

 Linear response parameters
   LEPSILON=     F    determine dielectric tensor
   LRPA    =     F    only Hartree local field effects (RPA)
   LNABLA  =     F    use nabla operator in PAW spheres
   LVEL    =     F    velocity operator in full k-point grid
   LINTERFAST=   F  fast interpolation
   KINTER  =     0    interpolate to denser k-point grid
   CSHIFT  =0.1000    complex shift for real part using Kramers Kronig
   OMEGAMAX=  -1.0    maximum frequency
   DEG_THRESHOLD= 0.2000000E-02 threshold for treating states as degnerate
   RTIME   =   -0.100 relaxation time in fs
  (WPLASMAI=    0.000 imaginary part of plasma frequency in eV, 0.658/RTIME)
   DFIELD  = 0.0000000 0.0000000 0.0000000 field for delta impulse in time

 Orbital magnetization related:
   ORBITALMAG=     F  switch on orbital magnetization
   LCHIMAG   =     F  perturbation theory with respect to B field
   DQ        =  0.001000  dq finite difference perturbation B field
   LLRAUG    =     F  two centre corrections for induced B field



--------------------------------------------------------------------------------------------------------


 quasi-Newton-method for relaxation of ions
 charge density and potential will be updated during run
 non-spin polarized calculation
 Variant of blocked Davidson
 Davidson routine will perform the subspace rotation
 perform sub-space diagonalisation
    after iterative eigenvector-optimisation
 modified Broyden-mixing scheme, WC =      100.0
 initial mixing is a Kerker type mixing with AMIX =  0.4000 and BMIX =      1.0000
 Hartree-type preconditioning will be used
 using additional bands           27
 real space projection scheme for non local part
 use partial core corrections
 calculate Harris-corrections to forces   (improved forces if not selfconsistent)
 use gradient corrections 
 use of overlap-Matrix (Vanderbilt PP)
 Gauss-broadening in eV      SIGMA  =   0.10


--------------------------------------------------------------------------------------------------------


  energy-cutoff  :      400.00
  volume of cell :     1319.19
      direct lattice vectors                 reciprocal lattice vectors
     7.401874065  0.000000000  0.000000000     0.135100921  0.078000577 -0.000000000
    -3.700937886  6.410210483  0.000000000     0.000000000  0.156001118  0.000000000
     0.000000000  0.000000000 27.803073883     0.000000000 -0.000000000  0.035967246

  length of vectors
     7.401874065  7.401874065 27.803073883     0.156001118  0.156001118  0.035967246



 k-points in units of 2pi/SCALE and weight: Regular k-point mesh                    
   0.00000000  0.00000000  0.00000000       0.004
   0.00900673  0.00520004  0.00000000       0.027
   0.01801346  0.01040008  0.00000000       0.027
   0.02702018  0.01560012  0.00000000       0.027
   0.03602691  0.02080015  0.00000000       0.027
   0.04503364  0.02600019  0.00000000       0.027
   0.05404037  0.03120023  0.00000000       0.027
   0.06304710  0.03640027  0.00000000       0.027
   0.00900673  0.01560011  0.00000000       0.027
   0.01801346  0.02080015  0.00000000       0.053
   0.02702018  0.02600019  0.00000000       0.053
   0.03602691  0.03120023  0.00000000       0.053
   0.04503364  0.03640027  0.00000000       0.053
   0.05404037  0.04160031  0.00000000       0.053
   0.06304710  0.04680034  0.00000000       0.027
   0.01801346  0.03120023  0.00000000       0.027
   0.02702018  0.03640026  0.00000000       0.053
   0.03602691  0.04160030  0.00000000       0.053
   0.04503364  0.04680034  0.00000000       0.053
   0.05404037  0.05200038  0.00000000       0.053
   0.02702018  0.04680034  0.00000000       0.027
   0.03602691  0.05200038  0.00000000       0.053
   0.04503364  0.05720042  0.00000000       0.053
   0.05404037  0.06240045  0.00000000       0.027
   0.03602691  0.06240045  0.00000000       0.027
   0.04503364  0.06760049  0.00000000       0.053
   0.04503364  0.07800056  0.00000000       0.009

 k-points in reciprocal lattice and weights: Regular k-point mesh                    
   0.00000000  0.00000000  0.00000000       0.004
   0.06666667  0.00000000  0.00000000       0.027
   0.13333333  0.00000000  0.00000000       0.027
   0.20000000  0.00000000  0.00000000       0.027
   0.26666667  0.00000000  0.00000000       0.027
   0.33333333  0.00000000  0.00000000       0.027
   0.40000000  0.00000000  0.00000000       0.027
   0.46666667  0.00000000  0.00000000       0.027
   0.06666667  0.06666667  0.00000000       0.027
   0.13333333  0.06666667  0.00000000       0.053
   0.20000000  0.06666667  0.00000000       0.053
   0.26666667  0.06666667  0.00000000       0.053
   0.33333333  0.06666667  0.00000000       0.053
   0.40000000  0.06666667  0.00000000       0.053
   0.46666667  0.06666667  0.00000000       0.027
   0.13333333  0.13333333  0.00000000       0.027
   0.20000000  0.13333333  0.00000000       0.053
   0.26666667  0.13333333  0.00000000       0.053
   0.33333333  0.13333333  0.00000000       0.053
   0.40000000  0.13333333  0.00000000       0.053
   0.20000000  0.20000000  0.00000000       0.027
   0.26666667  0.20000000  0.00000000       0.053
   0.33333333  0.20000000  0.00000000       0.053
   0.40000000  0.20000000  0.00000000       0.027
   0.26666667  0.26666667  0.00000000       0.027
   0.33333333  0.26666667  0.00000000       0.053
   0.33333333  0.33333333  0.00000000       0.009

 position of ions in fractional coordinates (direct lattice) 
   0.00000000  0.00000000  0.42983624
   1.00000000  0.33333334  0.42983624
   1.00000000  0.66666669  0.42983624
   0.33333334  0.00000000  0.42983624
   0.33333334  0.33333334  0.42983624
   0.33333334  0.66666669  0.42983624
   0.66666669  0.00000000  0.42983624
   0.66666669  0.33333334  0.42983624
   0.66666669  0.66666669  0.42983624
   0.00000000  0.00000000  0.57016373
   1.00000000  0.33333334  0.57016373
   1.00000000  0.66666669  0.57016373
   0.33333334  0.00000000  0.57016373
   0.33333334  0.33333334  0.57016373
   0.33333334  0.66666669  0.57016373
   0.66666669  0.00000000  0.57016373
   0.66666669  0.33333334  0.57016373
   0.66666669  0.66666669  0.57016373
   0.11111110  0.22222221  0.42983624
   0.11111110  0.55555552  0.42983624
   0.11111110  0.88888890  0.42983624
   0.44444445  0.22222221  0.42983624
   0.44444445  0.55555552  0.42983624
   0.44444445  0.88888890  0.42983624
   0.77777779  0.22222221  0.42983624
   0.77777779  0.55555552  0.42983624
   0.77777779  0.88888890  0.42983624
   0.22222222  0.11111110  0.57016373
   0.22222222  0.44444445  0.57016373
   0.22222222  0.77777779  0.57016373
   0.55555558  0.11111110  0.57016373
   0.55555558  0.44444445  0.57016373
   0.55555558  0.77777779  0.57016373
   0.88888890  0.11111110  0.57016373
   0.88888890  0.44444445  0.57016373
   0.88888890  0.77777779  0.57016373
   0.55555558  0.44444445  0.49999999

 position of ions in cartesian coordinates  (Angst):
   0.00000000  0.00000000 11.95076883
   6.16822807  2.13673689 11.95076883
   4.93458207  4.27347378 11.95076883
   2.46729143  0.00000000 11.95076883
   1.23364543  2.13673689 11.95076883
  -0.00000057  4.27347378 11.95076883
   4.93458286  0.00000000 11.95076883
   3.70093686  2.13673689 11.95076883
   2.46729086  4.27347378 11.95076883
   0.00000000  0.00000000 15.85230422
   6.16822807  2.13673689 15.85230422
   4.93458207  4.27347378 15.85230422
   2.46729143  0.00000000 15.85230422
   1.23364543  2.13673689 15.85230422
  -0.00000057  4.27347378 15.85230422
   4.93458286  0.00000000 15.85230422
   3.70093686  2.13673689 15.85230422
   2.46729086  4.27347378 15.85230422
  -0.00000019  1.42449113 11.95076883
  -1.23364608  3.56122783 11.95076883
  -2.46729219  5.69796492 11.95076883
   2.46729124  1.42449113 11.95076883
   1.23364535  3.56122783 11.95076883
  -0.00000076  5.69796492 11.95076883
   4.93458267  1.42449113 11.95076883
   3.70093678  3.56122783 11.95076883
   2.46729067  5.69796492 11.95076883
   1.23364562  0.71224557 15.85230422
  -0.00000038  2.84898246 15.85230422
  -1.23364638  4.98571935 15.85230422
   3.70093716  0.71224557 15.85230422
   2.46729116  2.84898246 15.85230422
   1.23364516  4.98571935 15.85230422
   6.16822837  0.71224557 15.85230422
   4.93458237  2.84898246 15.85230422
   3.70093637  4.98571935 15.85230422
   2.46729116  2.84898246 13.90153653



--------------------------------------------------------------------------------------------------------


 k-point  1 :   0.0000 0.0000 0.0000  plane waves:   23887
 k-point  2 :   0.0667 0.0000 0.0000  plane waves:   23855
 k-point  3 :   0.1333 0.0000 0.0000  plane waves:   23877
 k-point  4 :   0.2000 0.0000 0.0000  plane waves:   23929
 k-point  5 :   0.2667 0.0000 0.0000  plane waves:   23977
 k-point  6 :   0.3333 0.0000 0.0000  plane waves:   23955
 k-point  7 :   0.4000 0.0000 0.0000  plane waves:   23995
 k-point  8 :   0.4667 0.0000 0.0000  plane waves:   24004
 k-point  9 :   0.0667 0.0667 0.0000  plane waves:   23886
 k-point 10 :   0.1333 0.0667 0.0000  plane waves:   23936
 k-point 11 :   0.2000 0.0667 0.0000  plane waves:   23938
 k-point 12 :   0.2667 0.0667 0.0000  plane waves:   23964
 k-point 13 :   0.3333 0.0667 0.0000  plane waves:   23975
 k-point 14 :   0.4000 0.0667 0.0000  plane waves:   23986
 k-point 15 :   0.4667 0.0667 0.0000  plane waves:   23976
 k-point 16 :   0.1333 0.1333 0.0000  plane waves:   23970
 k-point 17 :   0.2000 0.1333 0.0000  plane waves:   23976
 k-point 18 :   0.2667 0.1333 0.0000  plane waves:   23962
 k-point 19 :   0.3333 0.1333 0.0000  plane waves:   23996
 k-point 20 :   0.4000 0.1333 0.0000  plane waves:   23986
 k-point 21 :   0.2000 0.2000 0.0000  plane waves:   23984
 k-point 22 :   0.2667 0.2000 0.0000  plane waves:   23998
 k-point 23 :   0.3333 0.2000 0.0000  plane waves:   23999
 k-point 24 :   0.4000 0.2000 0.0000  plane waves:   23978
 k-point 25 :   0.2667 0.2667 0.0000  plane waves:   23980
 k-point 26 :   0.3333 0.2667 0.0000  plane waves:   23973
 k-point 27 :   0.3333 0.3333 0.0000  plane waves:   23952

 maximum and minimum number of plane-waves per node :      6023     5941

 maximum number of plane-waves:     24004
 maximum index in each direction: 
   IXMAX=   12   IYMAX=   12   IZMAX=   45
   IXMIN=  -12   IYMIN=  -12   IZMIN=  -45


 real space projection operators:
  total allocation   :       2830.93 KBytes
  max/ min on nodes  :        719.12        701.52


 parallel 3D FFT for wavefunctions:
    minimum data exchange during FFTs selected (reduces bandwidth)
 parallel 3D FFT for charge:
    minimum data exchange during FFTs selected (reduces bandwidth)


 total amount of memory used by VASP MPI-rank0    64927. kBytes
=======================================================================

   base      :      30000. kBytes
   nonlr-proj:       1679. kBytes
   fftplans  :       2734. kBytes
   grid      :       4089. kBytes
   one-center:         30. kBytes
   wavefun   :      26395. kBytes

     INWAV:  cpu time    0.0000: real time    0.0000
 Broyden mixing: mesh for mixing (old mesh)
   NGX = 25   NGY = 25   NGZ = 91
  (NGX  = 72   NGY  = 72   NGZ  =280)
  gives a total of  56875 points

 initial charge density was supplied:
 charge density of overlapping atoms calculated
 number of electron     145.0000000 magnetization 
 keeping initial charge density in first step


--------------------------------------------------------------------------------------------------------


 Maximum index for non-local projection operator          311
 Maximum index for augmentation-charges          293 (set IRDMAX)


--------------------------------------------------------------------------------------------------------


 First call to EWALD:  gamma=   0.162
 Maximum number of real-space cells 4x 4x 1
 Maximum number of reciprocal cells 2x 2x 6

    FEWALD:  cpu time    0.0056: real time    0.0056


--------------------------------------- Iteration      1(   1)  ---------------------------------------


    POTLOK:  cpu time    0.0345: real time    0.0494
    SETDIJ:  cpu time    0.0015: real time    0.0015
     EDDAV:  cpu time    3.8193: real time    3.8488
       DOS:  cpu time    0.0008: real time    0.0009
    --------------------------------------------
      LOOP:  cpu time    3.8561: real time    3.9007

 eigenvalue-minimisations  :  6130
 total energy-change (2. order) : 0.1128061E+04  (-0.5101919E+04)
 number of electron     145.0000000 magnetization 
 augmentation part      145.0000000 magnetization 

 Free energy of the ion-electron system (eV)
  ---------------------------------------------------
  alpha Z        PSCENC =        81.55114726
  Ewald energy   TEWEN  =     49557.85841361
  -Hartree energ DENC   =    -53524.80566825
  -exchange      EXHF   =         0.00000000
  -V(xc)+E(xc)   XCENC  =       472.06411997
  PAW double counting   =      3914.45628527    -3929.39650609
  entropy T*S    EENTRO =        -0.05987117
  eigenvalues    EBANDS =      -745.48743419
  atomic energy  EATOM  =      5301.88014825
  Solvation  Ediel_sol  =         0.00000000
  ---------------------------------------------------
  free energy    TOTEN  =      1128.06063466 eV

  energy without entropy =     1128.12050583  energy(sigma->0) =     1128.09057025


--------------------------------------------------------------------------------------------------------




--------------------------------------- Iteration      1(   2)  ---------------------------------------


     EDDAV:  cpu time    4.6116: real time    4.6503
       DOS:  cpu time    0.0008: real time    0.0008
    --------------------------------------------
      LOOP:  cpu time    4.6124: real time    4.6511

 eigenvalue-minimisations  :  7840
 total energy-change (2. order) :-0.1293371E+04  (-0.1244267E+04)
 number of electron     145.0000000 magnetization 
 augmentation part      145.0000000 magnetization 

 Free energy of the ion-electron system (eV)
  ---------------------------------------------------
  alpha Z        PSCENC =        81.55114726
  Ewald energy   TEWEN  =     49557.85841361
  -Hartree energ DENC   =    -53524.80566825
  -exchange      EXHF   =         0.00000000
  -V(xc)+E(xc)   XCENC  =       472.06411997
  PAW double counting   =      3914.45628527    -3929.39650609
  entropy T*S    EENTRO =        -0.01341103
  eigenvalues    EBANDS =     -2038.90520771
  atomic energy  EATOM  =      5301.88014825
  Solvation  Ediel_sol  =         0.00000000
  ---------------------------------------------------
  free energy    TOTEN  =      -165.31067873 eV

  energy without entropy =     -165.29726769  energy(sigma->0) =     -165.30397321


--------------------------------------------------------------------------------------------------------




--------------------------------------- Iteration      1(   3)  ---------------------------------------


     EDDAV:  cpu time    3.8343: real time    3.8619
       DOS:  cpu time    0.0008: real time    0.0008
    --------------------------------------------
      LOOP:  cpu time    3.8352: real time    3.8627

 eigenvalue-minimisations  :  6670
 total energy-change (2. order) :-0.1860353E+03  (-0.1851212E+03)
 number of electron     145.0000000 magnetization 
 augmentation part      145.0000000 magnetization 

 Free energy of the ion-electron system (eV)
  ---------------------------------------------------
  alpha Z        PSCENC =        81.55114726
  Ewald energy   TEWEN  =     49557.85841361
  -Hartree energ DENC   =    -53524.80566825
  -exchange      EXHF   =         0.00000000
  -V(xc)+E(xc)   XCENC  =       472.06411997
  PAW double counting   =      3914.45628527    -3929.39650609
  entropy T*S    EENTRO =        -0.01012987
  eigenvalues    EBANDS =     -2224.94378596
  atomic energy  EATOM  =      5301.88014825
  Solvation  Ediel_sol  =         0.00000000
  ---------------------------------------------------
  free energy    TOTEN  =      -351.34597581 eV

  energy without entropy =     -351.33584594  energy(sigma->0) =     -351.34091087


--------------------------------------------------------------------------------------------------------




--------------------------------------- Iteration      1(   4)  ---------------------------------------


     EDDAV:  cpu time    3.8980: real time    3.9264
       DOS:  cpu time    0.0008: real time    0.0008
    --------------------------------------------
      LOOP:  cpu time    3.8987: real time    3.9272

 eigenvalue-minimisations  :  6750
 total energy-change (2. order) :-0.5681800E+01  (-0.5659548E+01)
 number of electron     145.0000000 magnetization 
 augmentation part      145.0000000 magnetization 

 Free energy of the ion-electron system (eV)
  ---------------------------------------------------
  alpha Z        PSCENC =        81.55114726
  Ewald energy   TEWEN  =     49557.85841361
  -Hartree energ DENC   =    -53524.80566825
  -exchange      EXHF   =         0.00000000
  -V(xc)+E(xc)   XCENC  =       472.06411997
  PAW double counting   =      3914.45628527    -3929.39650609
  entropy T*S    EENTRO =        -0.01138146
  eigenvalues    EBANDS =     -2230.62433425
  atomic energy  EATOM  =      5301.88014825
  Solvation  Ediel_sol  =         0.00000000
  ---------------------------------------------------
  free energy    TOTEN  =      -357.02777570 eV

  energy without entropy =     -357.01639424  energy(sigma->0) =     -357.02208497


--------------------------------------------------------------------------------------------------------




--------------------------------------- Iteration      1(   5)  ---------------------------------------


     EDDAV:  cpu time    4.2481: real time    4.2782
       DOS:  cpu time    0.0008: real time    0.0008
    CHARGE:  cpu time    0.1073: real time    0.1093
    MIXING:  cpu time    0.0017: real time    0.0019
    --------------------------------------------
      LOOP:  cpu time    4.3579: real time    4.3902

 eigenvalue-minimisations  :  7800
 total energy-change (2. order) :-0.1781379E+00  (-0.1779293E+00)
 number of electron     144.9999662 magnetization 
 augmentation part        3.8387366 magnetization 

 Broyden mixing:
  rms(total) = 0.26850E+01    rms(broyden)= 0.26848E+01
  rms(prec ) = 0.27834E+01
  weight for this iteration     100.00

 Free energy of the ion-electron system (eV)
  ---------------------------------------------------
  alpha Z        PSCENC =        81.55114726
  Ewald energy   TEWEN  =     49557.85841361
  -Hartree energ DENC   =    -53524.80566825
  -exchange      EXHF   =         0.00000000
  -V(xc)+E(xc)   XCENC  =       472.06411997
  PAW double counting   =      3914.45628527    -3929.39650609
  entropy T*S    EENTRO =        -0.01149737
  eigenvalues    EBANDS =     -2230.80235626
  atomic energy  EATOM  =      5301.88014825
  Solvation  Ediel_sol  =         0.00000000
  ---------------------------------------------------
  free energy    TOTEN  =      -357.20591361 eV

  energy without entropy =     -357.19441624  energy(sigma->0) =     -357.20016492


--------------------------------------------------------------------------------------------------------




--------------------------------------- Iteration      1(   6)  ---------------------------------------


    POTLOK:  cpu time    0.0160: real time    0.0161
    SETDIJ:  cpu time    0.0014: real time    0.0015
     EDDAV:  cpu time    3.4580: real time    3.4835
       DOS:  cpu time    0.0008: real time    0.0008
    CHARGE:  cpu time    0.1094: real time    0.1102
    MIXING:  cpu time    0.0010: real time    0.0012
    --------------------------------------------
      LOOP:  cpu time    3.5867: real time    3.6133

 eigenvalue-minimisations  :  6250
 total energy-change (2. order) : 0.1687162E+02  (-0.1626511E+01)
 number of electron     144.9999670 magnetization 
 augmentation part        3.6725817 magnetization 

 Broyden mixing:
  rms(total) = 0.15810E+01    rms(broyden)= 0.15809E+01
  rms(prec ) = 0.16279E+01
  weight for this iteration     100.00

 eigenvalues of (default mixing * dielectric matrix)
  average eigenvalue GAMMA=   2.1968
  2.1968

 Free energy of the ion-electron system (eV)
  ---------------------------------------------------
  alpha Z        PSCENC =        81.55114726
  Ewald energy   TEWEN  =     49557.85841361
  -Hartree energ DENC   =    -53727.42782616
  -exchange      EXHF   =         0.00000000
  -V(xc)+E(xc)   XCENC  =       481.12549116
  PAW double counting   =      7295.05814924    -7312.58886791
  entropy T*S    EENTRO =        -0.01153526
  eigenvalues    EBANDS =     -2017.77941273
  atomic energy  EATOM  =      5301.88014825
  Solvation  Ediel_sol  =         0.00000000
  ---------------------------------------------------
  free energy    TOTEN  =      -340.33429255 eV

  energy without entropy =     -340.32275729  energy(sigma->0) =     -340.32852492


--------------------------------------------------------------------------------------------------------




--------------------------------------- Iteration      1(   7)  ---------------------------------------


    POTLOK:  cpu time    0.0157: real time    0.0158
    SETDIJ:  cpu time    0.0011: real time    0.0011
     EDDAV:  cpu time    3.5985: real time    3.6244
       DOS:  cpu time    0.0008: real time    0.0008
    CHARGE:  cpu time    0.1120: real time    0.1126
    MIXING:  cpu time    0.0015: real time    0.0016
    --------------------------------------------
      LOOP:  cpu time    3.7296: real time    3.7563

 eigenvalue-minimisations  :  6310
 total energy-change (2. order) : 0.5885466E+01  (-0.2141342E+01)
 number of electron     144.9999680 magnetization 
 augmentation part        3.4731373 magnetization 

 Broyden mixing:
  rms(total) = 0.42458E+00    rms(broyden)= 0.42419E+00
  rms(prec ) = 0.43129E+00
  weight for this iteration     100.00

 eigenvalues of (default mixing * dielectric matrix)
  average eigenvalue GAMMA=   2.2217
  2.2217  2.2217

 Free energy of the ion-electron system (eV)
  ---------------------------------------------------
  alpha Z        PSCENC =        81.55114726
  Ewald energy   TEWEN  =     49557.85841361
  -Hartree energ DENC   =    -53996.17100435
  -exchange      EXHF   =         0.00000000
  -V(xc)+E(xc)   XCENC  =       492.74956122
  PAW double counting   =     13857.79410118   -13877.60889804
  entropy T*S    EENTRO =        -0.01172225
  eigenvalues    EBANDS =     -1752.49057365
  atomic energy  EATOM  =      5301.88014825
  Solvation  Ediel_sol  =         0.00000000
  ---------------------------------------------------
  free energy    TOTEN  =      -334.44882676 eV

  energy without entropy =     -334.43710452  energy(sigma->0) =     -334.44296564


--------------------------------------------------------------------------------------------------------




--------------------------------------- Iteration      1(   8)  ---------------------------------------


    POTLOK:  cpu time    0.0154: real time    0.0155
    SETDIJ:  cpu time    0.0012: real time    0.0012
     EDDAV:  cpu time    3.5791: real time    3.6046
       DOS:  cpu time    0.0008: real time    0.0008
    CHARGE:  cpu time    0.1098: real time    0.1104
    MIXING:  cpu time    0.0008: real time    0.0008
    --------------------------------------------
      LOOP:  cpu time    3.7070: real time    3.7332

 eigenvalue-minimisations  :  6270
 total energy-change (2. order) : 0.4222340E-01  (-0.7252514E-01)
 number of electron     144.9999680 magnetization 
 augmentation part        3.4729595 magnetization 

 Broyden mixing:
  rms(total) = 0.37352E-01    rms(broyden)= 0.37257E-01
  rms(prec ) = 0.53441E-01
  weight for this iteration     100.00

 eigenvalues of (default mixing * dielectric matrix)
  average eigenvalue GAMMA=   1.8454
  1.1193  2.4182  1.9989

 Free energy of the ion-electron system (eV)
  ---------------------------------------------------
  alpha Z        PSCENC =        81.55114726
  Ewald energy   TEWEN  =     49557.85841361
  -Hartree energ DENC   =    -54028.93025569
  -exchange      EXHF   =         0.00000000
  -V(xc)+E(xc)   XCENC  =       492.39308617
  PAW double counting   =     15462.29559804   -15481.16072193
  entropy T*S    EENTRO =        -0.01165654
  eigenvalues    EBANDS =     -1720.28236253
  atomic energy  EATOM  =      5301.88014825
  Solvation  Ediel_sol  =         0.00000000
  ---------------------------------------------------
  free energy    TOTEN  =      -334.40660337 eV

  energy without entropy =     -334.39494683  energy(sigma->0) =     -334.40077510


--------------------------------------------------------------------------------------------------------




--------------------------------------- Iteration      1(   9)  ---------------------------------------


    POTLOK:  cpu time    0.0152: real time    0.0153
    SETDIJ:  cpu time    0.0013: real time    0.0013
     EDDAV:  cpu time    3.5936: real time    3.6200
       DOS:  cpu time    0.0007: real time    0.0007
    CHARGE:  cpu time    0.1095: real time    0.1101
    MIXING:  cpu time    0.0005: real time    0.0005
    --------------------------------------------
      LOOP:  cpu time    3.7209: real time    3.7480

 eigenvalue-minimisations  :  6630
 total energy-change (2. order) : 0.1717974E-01  (-0.5285092E-02)
 number of electron     144.9999681 magnetization 
 augmentation part        3.4670269 magnetization 

 Broyden mixing:
  rms(total) = 0.25808E-01    rms(broyden)= 0.25797E-01
  rms(prec ) = 0.40018E-01
  weight for this iteration     100.00

 eigenvalues of (default mixing * dielectric matrix)
  average eigenvalue GAMMA=   1.8144
  2.2866  2.2866  1.3422  1.3422

 Free energy of the ion-electron system (eV)
  ---------------------------------------------------
  alpha Z        PSCENC =        81.55114726
  Ewald energy   TEWEN  =     49557.85841361
  -Hartree energ DENC   =    -54047.55536016
  -exchange      EXHF   =         0.00000000
  -V(xc)+E(xc)   XCENC  =       492.71159087
  PAW double counting   =     15546.48752326   -15565.36963940
  entropy T*S    EENTRO =        -0.01165669
  eigenvalues    EBANDS =     -1701.94159063
  atomic energy  EATOM  =      5301.88014825
  Solvation  Ediel_sol  =         0.00000000
  ---------------------------------------------------
  free energy    TOTEN  =      -334.38942363 eV

  energy without entropy =     -334.37776694  energy(sigma->0) =     -334.38359528


--------------------------------------------------------------------------------------------------------




--------------------------------------- Iteration      1(  10)  ---------------------------------------


    POTLOK:  cpu time    0.0155: real time    0.0156
    SETDIJ:  cpu time    0.0011: real time    0.0011
     EDDAV:  cpu time    3.5896: real time    3.6150
       DOS:  cpu time    0.0008: real time    0.0008
    CHARGE:  cpu time    0.1199: real time    0.1208
    MIXING:  cpu time    0.0011: real time    0.0011
    --------------------------------------------
      LOOP:  cpu time    3.7279: real time    3.7543

 eigenvalue-minimisations  :  6510
 total energy-change (2. order) : 0.1513279E-01  (-0.1631895E-02)
 number of electron     144.9999681 magnetization 
 augmentation part        3.4645282 magnetization 

 Broyden mixing:
  rms(total) = 0.14950E-01    rms(broyden)= 0.14937E-01
  rms(prec ) = 0.25766E-01
  weight for this iteration     100.00

 eigenvalues of (default mixing * dielectric matrix)
  average eigenvalue GAMMA=   1.7699
  2.5723  2.5723  1.7482  1.2317  0.7246

 Free energy of the ion-electron system (eV)
  ---------------------------------------------------
  alpha Z        PSCENC =        81.55114726
  Ewald energy   TEWEN  =     49557.85841361
  -Hartree energ DENC   =    -54072.07688590
  -exchange      EXHF   =         0.00000000
  -V(xc)+E(xc)   XCENC  =       492.86631444
  PAW double counting   =     15458.07808664   -15476.92097839
  entropy T*S    EENTRO =        -0.01165320
  eigenvalues    EBANDS =     -1677.59888355
  atomic energy  EATOM  =      5301.88014825
  Solvation  Ediel_sol  =         0.00000000
  ---------------------------------------------------
  free energy    TOTEN  =      -334.37429084 eV

  energy without entropy =     -334.36263764  energy(sigma->0) =     -334.36846424


--------------------------------------------------------------------------------------------------------




--------------------------------------- Iteration      1(  11)  ---------------------------------------


    POTLOK:  cpu time    0.0150: real time    0.0151
    SETDIJ:  cpu time    0.0012: real time    0.0012
     EDDAV:  cpu time    3.3193: real time    3.3456
       DOS:  cpu time    0.0008: real time    0.0008
    CHARGE:  cpu time    0.1108: real time    0.1114
    MIXING:  cpu time    0.0008: real time    0.0008
    --------------------------------------------
      LOOP:  cpu time    3.4479: real time    3.4749

 eigenvalue-minimisations  :  6180
 total energy-change (2. order) : 0.6716783E-02  (-0.4540959E-03)
 number of electron     144.9999681 magnetization 
 augmentation part        3.4631726 magnetization 

 Broyden mixing:
  rms(total) = 0.11249E-01    rms(broyden)= 0.11238E-01
  rms(prec ) = 0.18348E-01
  weight for this iteration     100.00

 eigenvalues of (default mixing * dielectric matrix)
  average eigenvalue GAMMA=   1.9143
  3.6511  2.4921  1.9864  0.9739  1.1911  1.1911

 Free energy of the ion-electron system (eV)
  ---------------------------------------------------
  alpha Z        PSCENC =        81.55114726
  Ewald energy   TEWEN  =     49557.85841361
  -Hartree energ DENC   =    -54089.67197002
  -exchange      EXHF   =         0.00000000
  -V(xc)+E(xc)   XCENC  =       493.00987102
  PAW double counting   =     15469.39068616   -15488.21789240
  entropy T*S    EENTRO =        -0.01165545
  eigenvalues    EBANDS =     -1660.15632249
  atomic energy  EATOM  =      5301.88014825
  Solvation  Ediel_sol  =         0.00000000
  ---------------------------------------------------
  free energy    TOTEN  =      -334.36757405 eV

  energy without entropy =     -334.35591861  energy(sigma->0) =     -334.36174633


--------------------------------------------------------------------------------------------------------




--------------------------------------- Iteration      1(  12)  ---------------------------------------


    POTLOK:  cpu time    0.0157: real time    0.0158
    SETDIJ:  cpu time    0.0012: real time    0.0012
     EDDAV:  cpu time    3.2690: real time    3.3010
       DOS:  cpu time    0.0008: real time    0.0008
    CHARGE:  cpu time    0.1096: real time    0.1103
    MIXING:  cpu time    0.0015: real time    0.0015
    --------------------------------------------
      LOOP:  cpu time    3.3977: real time    3.4305

 eigenvalue-minimisations  :  6010
 total energy-change (2. order) : 0.5875338E-03  (-0.7420952E-03)
 number of electron     144.9999681 magnetization 
 augmentation part        3.4610952 magnetization 

 Broyden mixing:
  rms(total) = 0.66218E-02    rms(broyden)= 0.66008E-02
  rms(prec ) = 0.95052E-02
  weight for this iteration     100.00

 eigenvalues of (default mixing * dielectric matrix)
  average eigenvalue GAMMA=   1.9972
  4.3167  2.3835  2.0131  2.0131  0.9653  1.1444  1.1444

 Free energy of the ion-electron system (eV)
  ---------------------------------------------------
  alpha Z        PSCENC =        81.55114726
  Ewald energy   TEWEN  =     49557.85841361
  -Hartree energ DENC   =    -54113.85056377
  -exchange      EXHF   =         0.00000000
  -V(xc)+E(xc)   XCENC  =       493.18959165
  PAW double counting   =     15478.67278912   -15497.50073703
  entropy T*S    EENTRO =        -0.01165885
  eigenvalues    EBANDS =     -1636.15611676
  atomic energy  EATOM  =      5301.88014825
  Solvation  Ediel_sol  =         0.00000000
  ---------------------------------------------------
  free energy    TOTEN  =      -334.36698652 eV

  energy without entropy =     -334.35532767  energy(sigma->0) =     -334.36115710


--------------------------------------------------------------------------------------------------------




--------------------------------------- Iteration      1(  13)  ---------------------------------------


    POTLOK:  cpu time    0.0152: real time    0.0153
    SETDIJ:  cpu time    0.0012: real time    0.0012
     EDDAV:  cpu time    3.3422: real time    3.3690
       DOS:  cpu time    0.0008: real time    0.0008
    CHARGE:  cpu time    0.1220: real time    0.1227
    MIXING:  cpu time    0.0010: real time    0.0010
    --------------------------------------------
      LOOP:  cpu time    3.4824: real time    3.5100

 eigenvalue-minimisations  :  6150
 total energy-change (2. order) :-0.4737828E-02  (-0.1208607E-03)
 number of electron     144.9999681 magnetization 
 augmentation part        3.4612206 magnetization 

 Broyden mixing:
  rms(total) = 0.46101E-02    rms(broyden)= 0.45874E-02
  rms(prec ) = 0.58353E-02
  weight for this iteration     100.00

 eigenvalues of (default mixing * dielectric matrix)
  average eigenvalue GAMMA=   2.1734
  5.7694  2.7402  2.4197  1.9777  1.2902  1.2902  0.9916  0.9083

 Free energy of the ion-electron system (eV)
  ---------------------------------------------------
  alpha Z        PSCENC =        81.55114726
  Ewald energy   TEWEN  =     49557.85841361
  -Hartree energ DENC   =    -54122.54373684
  -exchange      EXHF   =         0.00000000
  -V(xc)+E(xc)   XCENC  =       493.16109816
  PAW double counting   =     15485.65162321   -15504.47669648
  entropy T*S    EENTRO =        -0.01165832
  eigenvalues    EBANDS =     -1627.44206320
  atomic energy  EATOM  =      5301.88014825
  Solvation  Ediel_sol  =         0.00000000
  ---------------------------------------------------
  free energy    TOTEN  =      -334.37172435 eV

  energy without entropy =     -334.36006603  energy(sigma->0) =     -334.36589519


--------------------------------------------------------------------------------------------------------




--------------------------------------- Iteration      1(  14)  ---------------------------------------


    POTLOK:  cpu time    0.0157: real time    0.0157
    SETDIJ:  cpu time    0.0011: real time    0.0011
     EDDAV:  cpu time    3.1142: real time    3.1383
       DOS:  cpu time    0.0008: real time    0.0008
    CHARGE:  cpu time    0.1110: real time    0.1117
    MIXING:  cpu time    0.0008: real time    0.0008
    --------------------------------------------
      LOOP:  cpu time    3.2436: real time    3.2685

 eigenvalue-minimisations  :  5920
 total energy-change (2. order) :-0.2043511E-02  (-0.1984230E-04)
 number of electron     144.9999681 magnetization 
 augmentation part        3.4611111 magnetization 

 Broyden mixing:
  rms(total) = 0.28299E-02    rms(broyden)= 0.27946E-02
  rms(prec ) = 0.35718E-02
  weight for this iteration     100.00

 eigenvalues of (default mixing * dielectric matrix)
  average eigenvalue GAMMA=   2.2255
  6.2309  3.1928  2.5631  1.9446  1.5301  1.5301  1.0706  0.9838  0.9838

 Free energy of the ion-electron system (eV)
  ---------------------------------------------------
  alpha Z        PSCENC =        81.55114726
  Ewald energy   TEWEN  =     49557.85841361
  -Hartree energ DENC   =    -54126.91906555
  -exchange      EXHF   =         0.00000000
  -V(xc)+E(xc)   XCENC  =       493.16038721
  PAW double counting   =     15475.42401307   -15494.25206983
  entropy T*S    EENTRO =        -0.01165867
  eigenvalues    EBANDS =     -1623.06508321
  atomic energy  EATOM  =      5301.88014825
  Solvation  Ediel_sol  =         0.00000000
  ---------------------------------------------------
  free energy    TOTEN  =      -334.37376786 eV

  energy without entropy =     -334.36210919  energy(sigma->0) =     -334.36793853


--------------------------------------------------------------------------------------------------------




--------------------------------------- Iteration      1(  15)  ---------------------------------------


    POTLOK:  cpu time    0.0148: real time    0.0149
    SETDIJ:  cpu time    0.0011: real time    0.0011
     EDDAV:  cpu time    3.2510: real time    3.2762
       DOS:  cpu time    0.0008: real time    0.0008
    CHARGE:  cpu time    0.1134: real time    0.1141
    MIXING:  cpu time    0.0013: real time    0.0014
    --------------------------------------------
      LOOP:  cpu time    3.3826: real time    3.4086

 eigenvalue-minimisations  :  5820
 total energy-change (2. order) :-0.2611647E-02  (-0.1473543E-04)
 number of electron     144.9999681 magnetization 
 augmentation part        3.4610281 magnetization 

 Broyden mixing:
  rms(total) = 0.13076E-02    rms(broyden)= 0.12292E-02
  rms(prec ) = 0.17222E-02
  weight for this iteration     100.00

 eigenvalues of (default mixing * dielectric matrix)
  average eigenvalue GAMMA=   2.2703
  6.7709  3.5352  2.3278  2.3278  1.9308  1.4425  1.4425  1.0201  0.9526  0.9526

 Free energy of the ion-electron system (eV)
  ---------------------------------------------------
  alpha Z        PSCENC =        81.55114726
  Ewald energy   TEWEN  =     49557.85841361
  -Hartree energ DENC   =    -54129.36298574
  -exchange      EXHF   =         0.00000000
  -V(xc)+E(xc)   XCENC  =       493.15985568
  PAW double counting   =     15479.13543414   -15497.96387949
  entropy T*S    EENTRO =        -0.01165887
  eigenvalues    EBANDS =     -1620.62285434
  atomic energy  EATOM  =      5301.88014825
  Solvation  Ediel_sol  =         0.00000000
  ---------------------------------------------------
  free energy    TOTEN  =      -334.37637951 eV

  energy without entropy =     -334.36472063  energy(sigma->0) =     -334.37055007


--------------------------------------------------------------------------------------------------------




--------------------------------------- Iteration      1(  16)  ---------------------------------------


    POTLOK:  cpu time    0.0154: real time    0.0155
    SETDIJ:  cpu time    0.0012: real time    0.0012
     EDDAV:  cpu time    3.3324: real time    3.3578
       DOS:  cpu time    0.0008: real time    0.0008
    CHARGE:  cpu time    0.1062: real time    0.1068
    MIXING:  cpu time    0.0018: real time    0.0018
    --------------------------------------------
      LOOP:  cpu time    3.4579: real time    3.4839

 eigenvalue-minimisations  :  5910
 total energy-change (2. order) :-0.1475110E-02  (-0.7177141E-05)
 number of electron     144.9999681 magnetization 
 augmentation part        3.4610073 magnetization 

 Broyden mixing:
  rms(total) = 0.12986E-02    rms(broyden)= 0.12198E-02
  rms(prec ) = 0.13907E-02
  weight for this iteration     100.00

 eigenvalues of (default mixing * dielectric matrix)
  average eigenvalue GAMMA=   2.3573
  7.1874  4.3843  2.7125  2.5120  1.8347  1.5945  1.5945  1.1111  1.0144  1.0144
  0.9710

 Free energy of the ion-electron system (eV)
  ---------------------------------------------------
  alpha Z        PSCENC =        81.55114726
  Ewald energy   TEWEN  =     49557.85841361
  -Hartree energ DENC   =    -54130.32642442
  -exchange      EXHF   =         0.00000000
  -V(xc)+E(xc)   XCENC  =       493.15918467
  PAW double counting   =     15474.11915916   -15492.94796895
  entropy T*S    EENTRO =        -0.01165914
  eigenvalues    EBANDS =     -1619.65985506
  atomic energy  EATOM  =      5301.88014825
  Solvation  Ediel_sol  =         0.00000000
  ---------------------------------------------------
  free energy    TOTEN  =      -334.37785462 eV

  energy without entropy =     -334.36619548  energy(sigma->0) =     -334.37202505


--------------------------------------------------------------------------------------------------------




--------------------------------------- Iteration      1(  17)  ---------------------------------------


    POTLOK:  cpu time    0.0156: real time    0.0157
    SETDIJ:  cpu time    0.0011: real time    0.0012
     EDDAV:  cpu time    3.1288: real time    3.1514
       DOS:  cpu time    0.0008: real time    0.0008
    CHARGE:  cpu time    0.1086: real time    0.1092
    MIXING:  cpu time    0.0017: real time    0.0017
    --------------------------------------------
      LOOP:  cpu time    3.2568: real time    3.2800

 eigenvalue-minimisations  :  5910
 total energy-change (2. order) :-0.5015027E-03  (-0.1714851E-05)
 number of electron     144.9999681 magnetization 
 augmentation part        3.4609953 magnetization 

 Broyden mixing:
  rms(total) = 0.60899E-03    rms(broyden)= 0.41553E-03
  rms(prec ) = 0.52396E-03
  weight for this iteration     100.00
  WARNING: grid for Broyden might be to small

 eigenvalues of (default mixing * dielectric matrix)
  average eigenvalue GAMMA=   2.3615
  7.6966  4.7703  2.6985  2.6985  1.9423  1.6609  1.6609  1.1555  1.1555  1.0067
  0.9459  0.9459

 Free energy of the ion-electron system (eV)
  ---------------------------------------------------
  alpha Z        PSCENC =        81.55114726
  Ewald energy   TEWEN  =     49557.85841361
  -Hartree energ DENC   =    -54131.00800258
  -exchange      EXHF   =         0.00000000
  -V(xc)+E(xc)   XCENC  =       493.16076308
  PAW double counting   =     15477.09502235   -15495.92247969
  entropy T*S    EENTRO =        -0.01165908
  eigenvalues    EBANDS =     -1618.98170931
  atomic energy  EATOM  =      5301.88014825
  Solvation  Ediel_sol  =         0.00000000
  ---------------------------------------------------
  free energy    TOTEN  =      -334.37835612 eV

  energy without entropy =     -334.36669704  energy(sigma->0) =     -334.37252658


--------------------------------------------------------------------------------------------------------




--------------------------------------- Iteration      1(  18)  ---------------------------------------


    POTLOK:  cpu time    0.0164: real time    0.0165
    SETDIJ:  cpu time    0.0012: real time    0.0012
     EDDAV:  cpu time    2.9363: real time    2.9575
       DOS:  cpu time    0.0008: real time    0.0008
    CHARGE:  cpu time    0.1109: real time    0.1114
    MIXING:  cpu time    0.0020: real time    0.0020
    --------------------------------------------
      LOOP:  cpu time    3.0676: real time    3.0896

 eigenvalue-minimisations  :  5160
 total energy-change (2. order) :-0.1508098E-03  (-0.3386098E-06)
 number of electron     144.9999681 magnetization 
 augmentation part        3.4609740 magnetization 

 Broyden mixing:
  rms(total) = 0.51642E-03    rms(broyden)= 0.26170E-03
  rms(prec ) = 0.32640E-03
  weight for this iteration     100.00
  WARNING: grid for Broyden might be to small

 eigenvalues of (default mixing * dielectric matrix)
  average eigenvalue GAMMA=   2.4889
  8.1062  5.8171  3.1947  2.4359  2.2089  2.0878  1.6374  1.6374  1.1538  1.1538
  0.9599  0.9599  1.0033

 Free energy of the ion-electron system (eV)
  ---------------------------------------------------
  alpha Z        PSCENC =        81.55114726
  Ewald energy   TEWEN  =     49557.85841361
  -Hartree energ DENC   =    -54131.14477791
  -exchange      EXHF   =         0.00000000
  -V(xc)+E(xc)   XCENC  =       493.16124459
  PAW double counting   =     15476.00110619   -15494.82905503
  entropy T*S    EENTRO =        -0.01165908
  eigenvalues    EBANDS =     -1618.84507481
  atomic energy  EATOM  =      5301.88014825
  Solvation  Ediel_sol  =         0.00000000
  ---------------------------------------------------
  free energy    TOTEN  =      -334.37850693 eV

  energy without entropy =     -334.36684785  energy(sigma->0) =     -334.37267739


--------------------------------------------------------------------------------------------------------




--------------------------------------- Iteration      1(  19)  ---------------------------------------


    POTLOK:  cpu time    0.0157: real time    0.0158
    SETDIJ:  cpu time    0.0012: real time    0.0012
     EDDAV:  cpu time    2.3910: real time    2.4075
       DOS:  cpu time    0.0008: real time    0.0008
    CHARGE:  cpu time    0.1074: real time    0.1080
    MIXING:  cpu time    0.0008: real time    0.0009
    --------------------------------------------
      LOOP:  cpu time    2.5169: real time    2.5341

 eigenvalue-minimisations  :  4130
 total energy-change (2. order) :-0.1021295E-03  (-0.8734572E-07)
 number of electron     144.9999681 magnetization 
 augmentation part        3.4609787 magnetization 

 Broyden mixing:
  rms(total) = 0.45516E-03    rms(broyden)= 0.94818E-04
  rms(prec ) = 0.11993E-03
  weight for this iteration     100.00
  WARNING: grid for Broyden might be to small

 eigenvalues of (default mixing * dielectric matrix)
  average eigenvalue GAMMA=   2.4812
  8.3705  6.1363  3.3511  2.6496  2.6496  1.8969  1.6569  1.6569  1.1552  1.1552
  1.1388  0.9700  0.9700  0.9791

 Free energy of the ion-electron system (eV)
  ---------------------------------------------------
  alpha Z        PSCENC =        81.55114726
  Ewald energy   TEWEN  =     49557.85841361
  -Hartree energ DENC   =    -54131.25804418
  -exchange      EXHF   =         0.00000000
  -V(xc)+E(xc)   XCENC  =       493.16084249
  PAW double counting   =     15476.41761894   -15495.24532028
  entropy T*S    EENTRO =        -0.01165911
  eigenvalues    EBANDS =     -1618.73175604
  atomic energy  EATOM  =      5301.88014825
  Solvation  Ediel_sol  =         0.00000000
  ---------------------------------------------------
  free energy    TOTEN  =      -334.37860906 eV

  energy without entropy =     -334.36694995  energy(sigma->0) =     -334.37277951


--------------------------------------------------------------------------------------------------------




--------------------------------------- Iteration      1(  20)  ---------------------------------------


    POTLOK:  cpu time    0.0148: real time    0.0149
    SETDIJ:  cpu time    0.0013: real time    0.0013
     EDDAV:  cpu time    2.2969: real time    2.3132
       DOS:  cpu time    0.0008: real time    0.0008
    CHARGE:  cpu time    0.1087: real time    0.1093
    MIXING:  cpu time    0.0009: real time    0.0009
    --------------------------------------------
      LOOP:  cpu time    2.4235: real time    2.4404

 eigenvalue-minimisations  :  3850
 total energy-change (2. order) :-0.1343724E-04  (-0.1291603E-07)
 number of electron     144.9999681 magnetization 
 augmentation part        3.4609785 magnetization 

 Broyden mixing:
  rms(total) = 0.44873E-03    rms(broyden)= 0.56408E-04
  rms(prec ) = 0.68470E-04
  weight for this iteration     100.00
  WARNING: grid for Broyden might be to small

 eigenvalues of (default mixing * dielectric matrix)
  average eigenvalue GAMMA=   2.5240
  8.5585  6.5519  3.8097  2.8100  2.4046  2.2065  1.9937  1.6303  1.6303  1.1679
  1.1679  0.9594  0.9594  1.0314  0.9787

 Free energy of the ion-electron system (eV)
  ---------------------------------------------------
  alpha Z        PSCENC =        81.55114726
  Ewald energy   TEWEN  =     49557.85841361
  -Hartree energ DENC   =    -54131.29646409
  -exchange      EXHF   =         0.00000000
  -V(xc)+E(xc)   XCENC  =       493.16086499
  PAW double counting   =     15476.37527598   -15495.20314984
  entropy T*S    EENTRO =        -0.01165913
  eigenvalues    EBANDS =     -1618.69319951
  atomic energy  EATOM  =      5301.88014825
  Solvation  Ediel_sol  =         0.00000000
  ---------------------------------------------------
  free energy    TOTEN  =      -334.37862250 eV

  energy without entropy =     -334.36696337  energy(sigma->0) =     -334.37279293


--------------------------------------------------------------------------------------------------------




--------------------------------------- Iteration      1(  21)  ---------------------------------------


    POTLOK:  cpu time    0.0153: real time    0.0154
    SETDIJ:  cpu time    0.0020: real time    0.0020
     EDDAV:  cpu time    2.4130: real time    2.4337
       DOS:  cpu time    0.0008: real time    0.0008
    CHARGE:  cpu time    0.1089: real time    0.1095
    MIXING:  cpu time    0.0022: real time    0.0022
    --------------------------------------------
      LOOP:  cpu time    2.5423: real time    2.5637

 eigenvalue-minimisations  :  3760
 total energy-change (2. order) :-0.3499024E-05  (-0.6036231E-08)
 number of electron     144.9999681 magnetization 
 augmentation part        3.4609779 magnetization 

 Broyden mixing:
  rms(total) = 0.44572E-03    rms(broyden)= 0.22167E-04
  rms(prec ) = 0.27351E-04
  weight for this iteration     100.00
  WARNING: grid for Broyden might be to small

 eigenvalues of (default mixing * dielectric matrix)
  average eigenvalue GAMMA=   2.5071
  8.7174  6.5980  4.1352  2.7693  2.7693  2.3898  1.8920  1.6541  1.6541  1.2334
  1.2334  1.0854  1.0854  0.9598  0.9598  0.9773

 Free energy of the ion-electron system (eV)
  ---------------------------------------------------
  alpha Z        PSCENC =        81.55114726
  Ewald energy   TEWEN  =     49557.85841361
  -Hartree energ DENC   =    -54131.32678275
  -exchange      EXHF   =         0.00000000
  -V(xc)+E(xc)   XCENC  =       493.16092357
  PAW double counting   =     15476.26377974   -15495.09168521
  entropy T*S    EENTRO =        -0.01165912
  eigenvalues    EBANDS =     -1618.66291134
  atomic energy  EATOM  =      5301.88014825
  Solvation  Ediel_sol  =         0.00000000
  ---------------------------------------------------
  free energy    TOTEN  =      -334.37862600 eV

  energy without entropy =     -334.36696687  energy(sigma->0) =     -334.37279643


--------------------------------------------------------------------------------------------------------




--------------------------------------- Iteration      1(  22)  ---------------------------------------


    POTLOK:  cpu time    0.0162: real time    0.0163
    SETDIJ:  cpu time    0.0013: real time    0.0013
     EDDAV:  cpu time    2.4119: real time    2.4286
       DOS:  cpu time    0.0008: real time    0.0008
    --------------------------------------------
      LOOP:  cpu time    2.4301: real time    2.4470

 eigenvalue-minimisations  :  3910
 total energy-change (2. order) :-0.1013977E-06  (-0.1572519E-08)
 number of electron     144.9999681 magnetization 
 augmentation part        3.4609779 magnetization 

 Free energy of the ion-electron system (eV)
  ---------------------------------------------------
  alpha Z        PSCENC =        81.55114726
  Ewald energy   TEWEN  =     49557.85841361
  -Hartree energ DENC   =    -54131.34171995
  -exchange      EXHF   =         0.00000000
  -V(xc)+E(xc)   XCENC  =       493.16091057
  PAW double counting   =     15476.31590071   -15495.14376932
  entropy T*S    EENTRO =        -0.01165912
  eigenvalues    EBANDS =     -1618.64799810
  atomic energy  EATOM  =      5301.88014825
  Solvation  Ediel_sol  =         0.00000000
  ---------------------------------------------------
  free energy    TOTEN  =      -334.37862610 eV

  energy without entropy =     -334.36696698  energy(sigma->0) =     -334.37279654


--------------------------------------------------------------------------------------------------------




 average (electrostatic) potential at core
  the test charge radii are     0.6991  0.9748
  (the norm of the test charge is              1.0000)
       1 -57.4260       2 -57.4260       3 -57.4405       4 -57.4405       5 -57.6260
       6 -57.4405       7 -57.4260       8 -57.6260       9 -57.6260      10 -57.3964
      11 -57.3964      12 -57.4347      13 -57.4347      14 -57.5883      15 -57.4347
      16 -57.3964      17 -57.5883      18 -57.5883      19 -57.4373      20 -57.4222
      21 -57.4222      22 -57.6216      23 -57.6216      24 -57.4222      25 -57.4373
      26 -57.6216      27 -57.4373      28 -57.4646      29 -57.4646      30 -57.3680
      31 -57.4646      32 -57.6362      33 -57.4646      34 -57.4038      35 -57.4646
      36 -57.4646      37 -33.5952



 E-fermi :  -1.2090     XC(G=0):  -3.0140     alpha+bet : -2.8464


 k-point     1 :       0.0000    0.0000    0.0000
  band No.  band energies     occupation 
      1     -21.6296      2.00000
      2     -21.5842      2.00000
      3     -19.1907      2.00000
      4     -19.1809      2.00000
      5     -19.0875      2.00000
      6     -19.0875      2.00000
      7     -19.0216      2.00000
      8     -19.0216      2.00000
      9     -18.9506      2.00000
     10     -18.9506      2.00000
     11     -18.9172      2.00000
     12     -18.9136      2.00000
     13     -18.9135      2.00000
     14     -18.8765      2.00000
     15     -14.7044      2.00000
     16     -14.7044      2.00000
     17     -14.6911      2.00000
     18     -14.6663      2.00000
     19     -14.6663      2.00000
     20     -14.6475      2.00000
     21     -14.6475      2.00000
     22     -14.6285      2.00000
     23     -12.6664      2.00000
     24     -12.6071      2.00000
     25     -12.6071      2.00000
     26     -12.6059      2.00000
     27     -11.7303      2.00000
     28     -11.7301      2.00000
     29     -11.7221      2.00000
     30     -11.7137      2.00000
     31     -11.7135      2.00000
     32     -11.7000      2.00000
     33     -11.6910      2.00000
     34     -11.6908      2.00000
     35     -11.6872      2.00000
     36     -11.6601      2.00000
     37     -11.6599      2.00000
     38     -11.6381      2.00000
     39      -9.9984      2.00000
     40      -9.5900      2.00000
     41      -7.9101      2.00000
     42      -7.8953      2.00000
     43      -7.8949      2.00000
     44      -7.8832      2.00000
     45      -7.8829      2.00000
     46      -7.8434      2.00000
     47      -7.8061      2.00000
     48      -7.8057      2.00000
     49      -7.7669      2.00000
     50      -7.7646      2.00000
     51      -7.7643      2.00000
     52      -7.7582      2.00000
     53      -7.1720      2.00000
     54      -7.1114      2.00000
     55      -7.1114      2.00000
     56      -6.9261      2.00000
     57      -6.8325      2.00000
     58      -6.8325      2.00000
     59      -6.7835      2.00000
     60      -6.6340      2.00000
     61      -6.6340      2.00000
     62      -6.4565      2.00000
     63      -6.4565      2.00000
     64      -6.4202      2.00000
     65      -5.0938      2.00000
     66      -5.0930      2.00000
     67      -5.0698      2.00000
     68      -5.0690      2.00000
     69      -2.3273      2.00000
     70      -2.3273      2.00000
     71      -2.2154      2.00000
     72      -2.1567      2.00000
     73      -2.1567      2.00000
     74      -2.0630      2.00000
     75      -1.9907      2.00000
     76      -1.9907      2.00000
     77       1.1242      0.00000
     78       1.6796      0.00000
     79       2.0681      0.00000
     80       2.5016      0.00000
     81       2.5170      0.00000
     82       2.5171      0.00000
     83       2.5689      0.00000
     84       2.6202      0.00000
     85       2.6202      0.00000
     86       2.6665      0.00000
     87       2.7263      0.00000
     88       2.7935      0.00000
     89       2.8845      0.00000
     90       2.8845      0.00000
     91       2.9081      0.00000
     92       2.9081      0.00000
     93       2.9522      0.00000
     94       3.5696      0.00000
     95       3.9135      0.00000
     96       3.9256      0.00000
     97       3.9256      0.00000
     98       4.5935      0.00000
     99       4.6900      0.00000
    100       4.6902      0.00000

 k-point     2 :       0.0667    0.0000    0.0000
  band No.  band energies     occupation 
      1     -21.6180      2.00000
      2     -21.5727      2.00000
      3     -19.4076      2.00000
      4     -19.3728      2.00000
      5     -19.1898      2.00000
      6     -19.1663      2.00000
      7     -19.1347      2.00000
      8     -19.1333      2.00000
      9     -18.8888      2.00000
     10     -18.8455      2.00000
     11     -18.8247      2.00000
     12     -18.7805      2.00000
     13     -18.6398      2.00000
     14     -18.6002      2.00000
     15     -14.9741      2.00000
     16     -14.9646      2.00000
     17     -14.9552      2.00000
     18     -14.9217      2.00000
     19     -14.4546      2.00000
     20     -14.4516      2.00000
     21     -14.4368      2.00000
     22     -14.4157      2.00000
     23     -12.5914      2.00000
     24     -12.5336      2.00000
     25     -12.5315      2.00000
     26     -12.5262      2.00000
     27     -12.2853      2.00000
[...]
     76      -0.5050      0.00000
     77      -0.4356      0.00000
     78      -0.3671      0.00000
     79       1.2351      0.00000
     80       1.4133      0.00000
     81       1.6851      0.00000
     82       1.8469      0.00000
     83       1.9992      0.00000
     84       2.1738      0.00000
     85       2.2701      0.00000
     86       2.3565      0.00000
     87       2.4877      0.00000
     88       2.6507      0.00000
     89       2.8894      0.00000
     90       3.0525      0.00000
     91       3.1283      0.00000
     92       3.2922      0.00000
     93       3.5281      0.00000
     94       3.5511      0.00000
     95       3.5808      0.00000
     96       3.7928      0.00000
     97       3.8004      0.00000
     98       4.0133      0.00000
     99       4.0349      0.00000
    100       4.4609      0.00000

 k-point    27 :       0.3333    0.3333    0.0000
  band No.  band energies     occupation 
      1     -20.9152      2.00000
      2     -20.7667      2.00000
      3     -20.7132      2.00000
      4     -20.7130      2.00000
      5     -20.6229      2.00000
      6     -20.6206      2.00000
      7     -18.2328      2.00000
      8     -18.2320      2.00000
      9     -18.2164      2.00000
     10     -18.1477      2.00000
     11     -18.1228      2.00000
     12     -18.0938      2.00000
     13     -16.2467      2.00000
     14     -16.2461      2.00000
     15     -16.1529      2.00000
     16     -16.1372      2.00000
     17     -16.1255      2.00000
     18     -16.0752      2.00000
     19     -15.2079      2.00000
     20     -15.1463      2.00000
     21     -15.1461      2.00000
     22     -15.0750      2.00000
     23     -15.0628      2.00000
     24     -15.0613      2.00000
     25     -11.8131      2.00000
     26     -11.8129      2.00000
     27     -11.7462      2.00000
     28     -11.7059      2.00000
     29     -11.7034      2.00000
     30     -11.6684      2.00000
     31     -10.3012      2.00000
     32     -10.2335      2.00000
     33     -10.2331      2.00000
     34     -10.1886      2.00000
     35     -10.1366      2.00000
     36     -10.1335      2.00000
     37      -9.4217      2.00000
     38      -9.4114      2.00000
     39      -9.4110      2.00000
     40      -9.3271      2.00000
     41      -9.3118      2.00000
     42      -9.3108      2.00000
     43      -9.1254      2.00000
     44      -8.8698      2.00000
     45      -8.8663      2.00000
     46      -8.7635      2.00000
     47      -8.4183      2.00000
     48      -8.4150      2.00000
     49      -7.8433      2.00000
     50      -7.8430      2.00000
     51      -7.7492      2.00000
     52      -7.7390      2.00000
     53      -7.7376      2.00000
     54      -7.6790      2.00000
     55      -6.8670      2.00000
     56      -6.8666      2.00000
     57      -6.8107      2.00000
     58      -6.7647      2.00000
     59      -6.7621      2.00000
     60      -6.7322      2.00000
     61      -6.0755      2.00000
     62      -6.0441      2.00000
     63      -5.9654      2.00000
     64      -5.6820      2.00000
     65      -5.6445      2.00000
     66      -5.5892      2.00000
     67      -4.4252      2.00000
     68      -4.3911      2.00000
     69      -4.2738      2.00000
     70      -4.1621      2.00000
     71      -4.1224      2.00000
     72      -4.0844      2.00000
     73      -0.6723      0.00000
     74      -0.6547      0.00000
     75      -0.5663      0.00000
     76      -0.5132      0.00000
     77      -0.5116      0.00000
     78      -0.4439      0.00000
     79       1.6367      0.00000
     80       1.6789      0.00000
     81       1.7718      0.00000
     82       1.8606      0.00000
     83       1.8921      0.00000
     84       1.9512      0.00000
     85       2.1109      0.00000
     86       2.2944      0.00000
     87       2.2996      0.00000
     88       2.8439      0.00000
     89       2.8881      0.00000
     90       2.8887      0.00000
     91       3.2611      0.00000
     92       3.2839      0.00000
     93       3.2840      0.00000
     94       3.7352      0.00000
     95       3.7683      0.00000
     96       3.7831      0.00000
     97       3.7835      0.00000
     98       3.8074      0.00000
     99       3.8087      0.00000
    100       4.6466      0.00000


--------------------------------------------------------------------------------------------------------


 soft charge-density along one line, spin component           1
         0         1         2         3         4         5         6         7         8         9
 total charge-density along one line

 pseudopotential strength for first ion, spin component:           1
 10.172  13.526   0.000   0.000  -0.000  -0.000  -0.000   0.000
 13.526  17.984   0.000   0.000  -0.000  -0.000  -0.000   0.000
  0.000   0.000  -4.309   0.000  -0.000   8.428  -0.000   0.000
  0.000   0.000   0.000  -4.301  -0.000  -0.000   8.418   0.000
 -0.000  -0.000  -0.000  -0.000  -4.309   0.000   0.000   8.428
 -0.000  -0.000   8.428  -0.000   0.000 -18.621   0.000  -0.000
 -0.000  -0.000  -0.000   8.418   0.000   0.000 -18.610  -0.000
  0.000   0.000   0.000   0.000   8.428  -0.000  -0.000 -18.621
 total augmentation occupancy for first ion, spin component:           1
  8.271  -3.691   0.005  -0.001  -0.008   0.001   0.000  -0.001
 -3.691   1.702  -0.003   0.000   0.005  -0.000  -0.000   0.001
  0.005  -0.003   1.830  -0.000   0.001   0.173  -0.000   0.000
 -0.001   0.000  -0.000   1.218   0.000  -0.000   0.077   0.000
 -0.008   0.005   0.001   0.000   1.829   0.000   0.000   0.173
  0.001  -0.000   0.173  -0.000   0.000   0.018  -0.000   0.000
  0.000  -0.000  -0.000   0.077   0.000  -0.000   0.005   0.000
 -0.001   0.001   0.000   0.000   0.173   0.000   0.000   0.018


------------------------ aborting loop because EDIFF is reached ----------------------------------------


    CHARGE:  cpu time    0.1053: real time    0.1058
    FORLOC:  cpu time    0.0026: real time    0.0026
    FORNL :  cpu time    0.4684: real time    0.4711
    STRESS:  cpu time    1.4785: real time    1.4871
    FORCOR:  cpu time    0.0179: real time    0.0180
    FORHAR:  cpu time    0.0059: real time    0.0059
    MIXING:  cpu time    0.0005: real time    0.0005
    OFIELD:  cpu time    0.0000: real time    0.0000

 ---------------------------------------------------------------------------------------------

         DFTD3 V3.0 Rev 1        
 Edisp (eV)   -1.98824

 E6    (eV) :    -1.2218
 E8    (eV) :    -0.7665
 % E8        : 38.55
    FORVDW:  cpu time    0.0973: real time    0.1036

  FORCE on cell =-STRESS in cart. coord.  units (eV):
  Direction    XX          YY          ZZ          XY          YZ          ZX
  --------------------------------------------------------------------------------------
  Alpha Z    81.55115    81.55115    81.55115
  Ewald   54416.45443 54416.45503-59258.38565     0.00016     0.00000     0.00000
  Hartree 53942.94341 53942.94340-53737.53087    -0.00001    -0.00000    -0.00000
  E(xc)    -538.11498  -538.11483  -557.55849     0.00016     0.00004     0.00003
  Local  ************************111117.06682    -0.00163    -0.00133    -0.00077
  n-local  -127.58934  -128.07070  -119.52969     0.84668     0.00331     0.00360
  augment   -13.98813   -13.98697   -12.78946     0.00099     0.00010     0.00005
  Kinetic  2171.26899  2169.40626  2483.46649    -0.94706    -0.01780    -0.00846
  Fock        0.00000     0.00000     0.00000     0.00000     0.00000     0.00000
  vdW        -0.68611    -0.68611    -1.73110     0.00000    -0.00000     0.00000
  -------------------------------------------------------------------------------------
  Total       0.69316     0.69316    -5.44080    -0.00000    -0.00000     0.00000
  in kB       0.84186     0.84186    -6.60795    -0.00000    -0.00000     0.00000
  external pressure =       -1.64 kB  Pullay stress =        0.00 kB


 VOLUME and BASIS-vectors are now :
 -----------------------------------------------------------------------------
  energy-cutoff  :      400.00
  volume of cell :     1319.19
      direct lattice vectors                 reciprocal lattice vectors
     7.401874065  0.000000000  0.000000000     0.135100921  0.078000577 -0.000000000
    -3.700937886  6.410210483  0.000000000     0.000000000  0.156001118  0.000000000
     0.000000000  0.000000000 27.803073883     0.000000000 -0.000000000  0.035967246

  length of vectors
     7.401874065  7.401874065 27.803073883     0.156001118  0.156001118  0.035967246


 FORCES acting on ions
    electron-ion (+dipol)            ewald-force                    non-local-force                 convergence-correction
 -----------------------------------------------------------------------------------------------
   -.692E+00 0.399E+00 0.398E+03   0.721E+00 -.416E+00 -.398E+03   -.290E-01 0.167E-01 0.345E-01   0.165E-03 -.955E-04 -.136E-03
   0.223E-03 -.799E+00 0.398E+03   0.620E-04 0.832E+00 -.398E+03   0.446E-08 -.335E-01 0.345E-01   -.742E-08 0.191E-03 -.136E-03
   -.509E+00 -.294E+00 0.398E+03   0.892E+00 0.515E+00 -.398E+03   -.379E+00 -.219E+00 0.438E-02   -.194E-03 -.112E-03 -.186E-04
   0.101E-03 0.588E+00 0.398E+03   0.656E-05 -.103E+01 -.398E+03   -.583E-07 0.438E+00 0.438E-02   -.701E-08 0.224E-03 -.186E-04
   0.236E+01 0.137E+01 0.407E+03   -.311E+01 -.180E+01 -.409E+03   0.734E+00 0.424E+00 0.120E+01   -.228E-03 -.132E-03 0.264E-03
   0.510E+00 -.294E+00 0.398E+03   -.892E+00 0.515E+00 -.398E+03   0.379E+00 -.219E+00 0.438E-02   0.194E-03 -.112E-03 -.186E-04
   0.692E+00 0.399E+00 0.398E+03   -.721E+00 -.416E+00 -.398E+03   0.290E-01 0.167E-01 0.345E-01   -.165E-03 -.955E-04 -.136E-03
   -.236E+01 0.137E+01 0.407E+03   0.311E+01 -.180E+01 -.409E+03   -.734E+00 0.424E+00 0.120E+01   0.228E-03 -.132E-03 0.264E-03
   0.643E-04 -.273E+01 0.407E+03   0.374E-04 0.359E+01 -.409E+03   0.113E-06 -.848E+00 0.120E+01   -.574E-08 0.264E-03 0.264E-03
   0.419E+00 -.242E+00 -.396E+03   -.503E+00 0.290E+00 0.396E+03   0.879E-01 -.508E-01 0.290E-01   -.649E-04 0.375E-04 -.251E-03
   -.168E-03 0.484E+00 -.396E+03   -.691E-05 -.581E+00 0.396E+03   -.135E-07 0.102E+00 0.290E-01   -.314E-07 -.750E-04 -.251E-03
   -.633E+00 -.365E+00 -.399E+03   0.792E+00 0.457E+00 0.400E+03   -.151E+00 -.871E-01 -.159E+00   -.248E-04 -.143E-04 -.255E-03
   -.448E-04 0.731E+00 -.399E+03   -.105E-04 -.914E+00 0.400E+03   -.232E-07 0.174E+00 -.159E+00   0.427E-07 0.286E-04 -.255E-03
   0.159E+01 0.917E+00 -.407E+03   -.216E+01 -.125E+01 0.408E+03   0.574E+00 0.332E+00 -.782E+00   -.131E-03 -.754E-04 -.858E-04
   0.633E+00 -.365E+00 -.399E+03   -.792E+00 0.457E+00 0.400E+03   0.151E+00 -.871E-01 -.159E+00   0.247E-04 -.143E-04 -.255E-03
   -.419E+00 -.242E+00 -.396E+03   0.503E+00 0.290E+00 0.396E+03   -.879E-01 -.508E-01 0.290E-01   0.649E-04 0.375E-04 -.251E-03
   -.159E+01 0.917E+00 -.407E+03   0.216E+01 -.125E+01 0.408E+03   -.574E+00 0.332E+00 -.782E+00   0.131E-03 -.755E-04 -.858E-04
   -.247E-04 -.183E+01 -.407E+03   -.509E-04 0.250E+01 0.408E+03   0.883E-07 -.663E+00 -.782E+00   -.136E-08 0.151E-03 -.858E-04
   0.503E+00 0.291E+00 0.398E+03   -.885E+00 -.511E+00 -.398E+03   0.378E+00 0.218E+00 0.238E-02   0.197E-03 0.114E-03 -.230E-04
   -.105E-03 0.784E+00 0.398E+03   -.344E-04 -.817E+00 -.398E+03   -.434E-08 0.326E-01 0.352E-01   0.606E-08 -.190E-03 -.138E-03
   0.679E+00 -.392E+00 0.398E+03   -.707E+00 0.408E+00 -.398E+03   0.282E-01 -.163E-01 0.352E-01   -.164E-03 0.949E-04 -.138E-03
   -.118E-03 0.274E+01 0.407E+03   -.317E-04 -.360E+01 -.408E+03   -.113E-06 0.848E+00 0.120E+01   0.468E-08 -.262E-03 0.271E-03
   0.237E+01 -.137E+01 0.407E+03   -.312E+01 0.180E+01 -.408E+03   0.735E+00 -.424E+00 0.120E+01   -.227E-03 0.131E-03 0.271E-03
   -.679E+00 -.392E+00 0.398E+03   0.707E+00 0.408E+00 -.398E+03   -.282E-01 -.163E-01 0.352E-01   0.164E-03 0.949E-04 -.138E-03
   -.503E+00 0.291E+00 0.398E+03   0.885E+00 -.511E+00 -.398E+03   -.378E+00 0.218E+00 0.238E-02   -.197E-03 0.114E-03 -.230E-04
   -.237E+01 -.137E+01 0.407E+03   0.312E+01 0.180E+01 -.408E+03   -.735E+00 -.424E+00 0.120E+01   0.227E-03 0.131E-03 0.271E-03
   -.131E-03 -.581E+00 0.398E+03   -.410E-04 0.102E+01 -.398E+03   0.582E-07 -.437E+00 0.238E-02   0.804E-08 -.227E-03 -.230E-04
   0.369E+00 0.103E+01 -.400E+03   -.455E+00 -.135E+01 0.400E+03   0.823E-01 0.322E+00 -.198E+00   0.374E-04 -.456E-04 -.204E-03
   0.108E+01 -.195E+00 -.400E+03   -.140E+01 0.280E+00 0.400E+03   0.320E+00 -.895E-01 -.198E+00   -.208E-04 0.553E-04 -.204E-03
   0.172E-03 -.146E-03 -.396E+03   0.374E-04 -.449E-04 0.396E+03   0.466E-17 0.105E-17 0.569E-01   0.863E-08 -.480E-08 -.280E-03
   -.369E+00 0.103E+01 -.400E+03   0.455E+00 -.135E+01 0.400E+03   -.823E-01 0.322E+00 -.198E+00   -.374E-04 -.457E-04 -.204E-03
   0.188E-03 0.398E-04 -.423E+03   -.102E-04 -.178E-04 0.425E+03   -.125E-16 0.333E-17 -.198E+01   -.115E-08 0.578E-09 0.158E-04
   0.707E+00 -.834E+00 -.400E+03   -.941E+00 0.107E+01 0.400E+03   0.237E+00 -.232E+00 -.198E+00   -.583E-04 -.962E-05 -.204E-03
   0.149E-03 -.119E-03 -.397E+03   0.407E-04 0.347E-04 0.397E+03   0.115E-16 -.174E-17 -.723E-01   -.958E-09 0.537E-09 -.287E-03
   -.108E+01 -.195E+00 -.400E+03   0.140E+01 0.280E+00 0.400E+03   -.320E+00 -.895E-01 -.198E+00   0.209E-04 0.552E-04 -.204E-03
   -.707E+00 -.834E+00 -.400E+03   0.941E+00 0.107E+01 0.400E+03   -.237E+00 -.232E+00 -.198E+00   0.582E-04 -.960E-05 -.204E-03
   -.321E-05 -.336E-05 -.846E+00   -.221E-05 -.516E-06 0.766E+00   -.113E-18 0.135E-18 0.113E+00   0.591E-10 0.268E-10 0.145E-05
 -----------------------------------------------------------------------------------------------
   0.850E-03 -.401E-03 -.162E+01   0.476E-13 -.129E-13 0.484E-12   -.250E-15 0.834E-16 0.160E+01   0.274E-08 -.123E-08 -.289E-02


 POSITION                                       TOTAL-FORCE (eV/Angst)
 -----------------------------------------------------------------------------------
     -0.00033      0.00019     11.96110         0.000983     -0.000567      0.004930
      6.16823      2.13635     11.96110        -0.000000      0.001135      0.004930
      4.93877      4.27589     11.96059        -0.000513     -0.000296      0.003732
      2.46729     -0.00484     11.96059        -0.000000      0.000593      0.003732
      1.22960      2.13440     11.94646        -0.000673     -0.000389     -0.001986
     -0.00419      4.27589     11.96059         0.000513     -0.000296      0.003732
      4.93492      0.00019     11.96110        -0.000983     -0.000567      0.004930
      3.70499      2.13440     11.94646         0.000673     -0.000389     -0.001986
      2.46729      4.27815     11.94646        -0.000000      0.000778     -0.001986
     -0.00065      0.00038     15.84445         0.004250     -0.002454     -0.000399
      6.16823      2.13598     15.84445        -0.000000      0.004907     -0.000399
      4.93572      4.27413     15.85100         0.002260      0.001305     -0.000743
      2.46729     -0.00132     15.85100         0.000000     -0.002610     -0.000743
      1.22934      2.13425     15.86758         0.002268      0.001309     -0.003831
     -0.00114      4.27413     15.85100        -0.002260      0.001305     -0.000743
      4.93524      0.00038     15.84445        -0.004250     -0.002454     -0.000399
      3.70525      2.13425     15.86758        -0.002268      0.001309     -0.003831
      2.46729      4.27845     15.86758         0.000000     -0.002619     -0.003831
     -0.00417      1.42208     11.96046         0.000558      0.000322      0.003699
     -1.23365      3.56164     11.96120         0.000000     -0.001133      0.004958
     -2.46694      5.69776     11.96120        -0.000981      0.000566      0.004958
      2.46729      1.41982     11.94658         0.000000     -0.000729     -0.001980
      1.22960      3.56356     11.94658        -0.000632      0.000365     -0.001980
     -0.00035      5.69776     11.96120         0.000981      0.000566      0.004958
      4.93875      1.42208     11.96046        -0.000558      0.000322      0.003699
      3.70498      3.56356     11.94658         0.000632      0.000365     -0.001980
      2.46729      5.70278     11.96046         0.000000     -0.000644      0.003699
      1.23303      0.70928     15.85267        -0.004330     -0.000045     -0.001532
     -0.00288      2.84993     15.85267        -0.002204     -0.003727     -0.001532
     -1.23365      4.98572     15.84530        -0.000000      0.000000      0.000269
      3.70156      0.70928     15.85267         0.004330     -0.000045     -0.001532
      2.46729      2.84898     15.89635        -0.000000      0.000000     -0.006582
      1.23139      4.98774     15.85267         0.002126      0.003772     -0.001532
      6.16823      0.71225     15.84381        -0.000000      0.000000     -0.000308
      4.93746      2.84993     15.85267         0.002204     -0.003727     -0.001532
      3.70320      4.98774     15.85267        -0.002126      0.003772     -0.001532
      2.46729      2.84898     13.75703        -0.000000      0.000000     -0.009331
 -----------------------------------------------------------------------------------
    total drift:                                0.000850     -0.000401     -0.020820


--------------------------------------------------------------------------------------------------------



  FREE ENERGIE OF THE ION-ELECTRON SYSTEM (eV)
  ---------------------------------------------------
  free  energy   TOTEN  =      -336.46536609 eV

  energy  without entropy=     -336.45303626  energy(sigma->0) =     -336.45920117

 d Force = 0.1168124E-04[ 0.651E-05, 0.169E-04]  d Energy = 0.1210945E-04-0.428E-06
 d Force =-0.6283311E+00[-0.628E+00,-0.628E+00]  d Ewald  =-0.6283311E+00-0.607E-09


--------------------------------------------------------------------------------------------------------


    POTLOK:  cpu time    0.0267: real time    0.0268


--------------------------------------------------------------------------------------------------------


 stress matrix after NEB project (eV)
      0.69316     -0.00000      0.00000
     -0.00000      0.69316     -0.00000
     -0.00000     -0.00000     -5.44080
  FORCES: max atom, RMS     0.009331    0.004297
  FORCE total and by dimension    0.026135    0.009331
  Stress total and by dimension    5.528403    5.440799
 Quasi-Newton relaxation of ions (Broydens 2nd method)
  g(Force)  = 0.330E-04   g(Stress)= 0.000E+00

 retain information from N=  2 steps
 eigenvalues of (default step * inverse Hessian matrix)
  average eigenvalue of G=   0.6617
 eigenvalue spectrum of G is  0.1927  1.1307


--------------------------------------------------------------------------------------------------------


  
 reached required accuracy - stopping structural energy minimisation
 writing wavefunctions
     LOOP+:  cpu time   12.8490: real time   13.2699
    4ORBIT:  cpu time    0.0000: real time    0.0000

 total amount of memory used by VASP MPI-rank0    64927. kBytes
=======================================================================

   base      :      30000. kBytes
   nonlr-proj:       1679. kBytes
   fftplans  :       2734. kBytes
   grid      :       4089. kBytes
   one-center:         30. kBytes
   wavefun   :      26395. kBytes

  
  
 General timing and accounting informations for this job:
 ========================================================
  
                  Total CPU time used (sec):      521.749
                            User time (sec):      519.843
                          System time (sec):        1.906
                         Elapsed time (sec):      527.123
  
                   Maximum memory used (kb):      220224.
                   Average memory used (kb):           0.
  
                          Minor page faults:       158243
                          Major page faults:            2
                 Voluntary context switches:         7660
