 vasp.5.4.4.18Apr17-6-g9f103f2a35 (build Sep 10 2024 21:01:58) complex           
 executed on             LinuxGNU date 2025.04.14  15:18:00
 running on   40 total cores
 distrk:  each k-point on   40 cores,    1 groups
 distr:  one band on NCORES_PER_BAND=   4 cores,   10 groups


--------------------------------------------------------------------------------------------------------


 INCAR:
 POTCAR:    PAW_PBE C 08Apr2002                   
 POTCAR:    PAW_PBE H 15Jun2001                   
 POTCAR:    PAW_PBE Li 17Jan2003                  
 POTCAR:    PAW_PBE C 08Apr2002                   
   SHA256 =  253f7b50bb8d59471dbedb8285d89021f4a42ed1a2c5d38a03a736e69125dd95 C/
   COPYR  = (c) Copyright 08Apr2002 Georg Kresse                                
   COPYR  = This file is part of the software VASP. Any use, copying, and all ot
   COPYR  = If you do not have a valid VASP license, you may not use, copy or di
   VRHFIN =C: s2p2                                                              
   LEXCH  = PE                                                                  
   EATOM  =   147.1560 eV,   10.8157 Ry                                         
                                                                                
   TITEL  = PAW_PBE C 08Apr2002                                                 
   LULTRA =        F    use ultrasoft PP ?                                      
   IUNSCR =        1    unscreen: 0-lin 1-nonlin 2-no                           
   RPACOR =    1.200    partial core radius                                     
   POMASS =   12.011; ZVAL   =    4.000    mass and valenz                      
   RCORE  =    1.500    outmost cutoff radius                                   
   RWIGS  =    1.630; RWIGS  =    0.863    wigner-seitz radius (au A)           
   ENMAX  =  400.000; ENMIN  =  300.000 eV                                      
   ICORE  =        2    local potential                                         
   LCOR   =        T    correct aug charges                                     
   LPAW   =        T    paw PP                                                  
   EAUG   =  644.873                                                            
   DEXC   =    0.000                                                            
   RMAX   =    1.529    core radius for proj-oper                               
   RAUG   =    1.300    factor for augmentation sphere                          
   RDEP   =    1.501    radius for radial grids                                 
   RDEPT  =    1.300    core radius for aug-charge                              
                                                                                
   Atomic configuration                                                         
    4 entries                                                                   
     n  l   j            E        occ.                                          
     1  0  0.50      -273.3789   2.0000                                         
     2  0  0.50       -13.7508   2.0000                                         
     2  1  0.50        -5.2854   2.0000                                         
     3  2  1.50        -5.4423   0.0000                                         
   Description                                                                  
     l       E           TYP  RCUT    TYP  RCUT                                 
     0    -13.7508458     23  1.200                                             
     0     -8.2022199     23  1.200                                             
     1     -5.2854383     23  1.500                                             
     1     34.0145650     23  1.500                                             
     2     -5.4423304      7  1.500                                             
  local pseudopotential read in
  partial core-charges read in
  partial kinetic energy density read in
  atomic valenz-charges read in
  non local Contribution for L=           0  read in
    real space projection operators read in
  non local Contribution for L=           0  read in
    real space projection operators read in
  non local Contribution for L=           1  read in
    real space projection operators read in
  non local Contribution for L=           1  read in
    real space projection operators read in
    PAW grid and wavefunctions read in

   number of l-projection  operators is LMAX  =           4
   number of lm-projection operators is LMMAX =           8

 POTCAR:    PAW_PBE H 15Jun2001                   
   SHA256 =  030f79b5d3ab3cf0e668861823c8fb652ff669f3e15e46930bd03bfd63a607b6 H/
   COPYR  = (c) Copyright 15Jun2001 Georg Kresse                                
   COPYR  = This file is part of the software VASP. Any use, copying, and all ot
   COPYR  = If you do not have a valid VASP license, you may not use, copy or di
   VRHFIN =H: ultrasoft test                                                    
   LEXCH  = PE                                                                  
   EATOM  =    12.4884 eV,    0.9179 Ry                                         
                                                                                
   TITEL  = PAW_PBE H 15Jun2001                                                 
   LULTRA =        F    use ultrasoft PP ?                                      
   IUNSCR =        0    unscreen: 0-lin 1-nonlin 2-no                           
   RPACOR =    0.000    partial core radius                                     
   POMASS =    1.000; ZVAL   =    1.000    mass and valenz                      
   RCORE  =    1.100    outmost cutoff radius                                   
   RWIGS  =    0.700; RWIGS  =    0.370    wigner-seitz radius (au A)           
   ENMAX  =  250.000; ENMIN  =  200.000 eV                                      
   RCLOC  =    0.701    cutoff for local pot                                    
   LCOR   =        T    correct aug charges                                     
   LPAW   =        T    paw PP                                                  
   EAUG   =  400.000                                                            
   RMAX   =    1.123    core radius for proj-oper                               
   RAUG   =    1.200    factor for augmentation sphere                          
   RDEP   =    1.112    radius for radial grids                                 
   RDEPT  =    0.926    core radius for aug-charge                              
                                                                                
   Atomic configuration                                                         
    2 entries                                                                   
     n  l   j            E        occ.                                          
     1  0  0.50        -6.4927   1.0000                                         
     2  1  0.50        -3.4015   0.0000                                         
   Description                                                                  
     l       E           TYP  RCUT    TYP  RCUT                                 
     0     -6.4927494     23  1.100                                             
     0      6.8029130     23  1.100                                             
     1     -4.0817478     23  1.100                                             
  local pseudopotential read in
  atomic valenz-charges read in
  non local Contribution for L=           0  read in
    real space projection operators read in
  non local Contribution for L=           0  read in
    real space projection operators read in
  non local Contribution for L=           1  read in
    real space projection operators read in
    PAW grid and wavefunctions read in

   number of l-projection  operators is LMAX  =           3
   number of lm-projection operators is LMMAX =           5

 POTCAR:    PAW_PBE Li 17Jan2003                  
   SHA256 =  3d9d9bfd1dd25b20a3b919cb3191e6ef627605783dc2e149b9290ff31c32aa6e Li
   COPYR  = (c) Copyright 17Jan2003 Georg Kresse                                
   COPYR  = This file is part of the software VASP. Any use, copying, and all ot
   COPYR  = If you do not have a valid VASP license, you may not use, copy or di
   VRHFIN =Li: s1p0                                                             
   LEXCH  = PE                                                                  
   EATOM  =     5.3001 eV,    0.3895 Ry                                         
                                                                                
   TITEL  = PAW_PBE Li 17Jan2003                                                
   LULTRA =        F    use ultrasoft PP ?                                      
   IUNSCR =        1    unscreen: 0-lin 1-nonlin 2-no                           
   RPACOR =    1.500    partial core radius                                     
   POMASS =    7.010; ZVAL   =    1.000    mass and valenz                      
   RCORE  =    2.050    outmost cutoff radius                                   
   RWIGS  =    2.600; RWIGS  =    1.376    wigner-seitz radius (au A)           
   ENMAX  =  140.000; ENMIN  =  100.000 eV                                      
   ICORE  =        2    local potential                                         
   LCOR   =        T    correct aug charges                                     
   LPAW   =        T    paw PP                                                  
   EAUG   =  331.638                                                            
   DEXC   =    0.000                                                            
   RMAX   =    2.098    core radius for proj-oper                               
   RAUG   =    1.300    factor for augmentation sphere                          
   RDEP   =    2.094    radius for radial grids                                 
   RDEPT  =    1.810    core radius for aug-charge                              
                                                                                
   Atomic configuration                                                         
    4 entries                                                                   
     n  l   j            E        occ.                                          
     1  0  0.50       -51.8549   2.0000                                         
     2  0  0.50        -2.8742   1.0000                                         
     2  1  0.50        -1.3606   0.0000                                         
     3  2  1.50        -1.3606   0.0000                                         
   Description                                                                  
     l       E           TYP  RCUT    TYP  RCUT                                 
     0     -2.8742052     23  2.050                                             
     0     27.2116520     23  2.050                                             
     1     -1.3605826     23  2.050                                             
     2     -1.3605826     23  2.050                                             
  local pseudopotential read in
  partial core-charges read in
  partial kinetic energy density read in
  atomic valenz-charges read in
  non local Contribution for L=           0  read in
    real space projection operators read in
  non local Contribution for L=           0  read in
    real space projection operators read in
  non local Contribution for L=           1  read in
    real space projection operators read in
    PAW grid and wavefunctions read in

   number of l-projection  operators is LMAX  =           3
   number of lm-projection operators is LMMAX =           5

 Optimization of the real space projectors (new method)

 maximal supplied QI-value         = 25.13
 optimisation between [QCUT,QGAM] = [ 10.05, 20.36] = [ 28.30,116.06] Ry 
 Optimized for a Real-space Cutoff    1.30 Angstroem

   l    n(q)    QCUT    max X(q) W(low)/X(q) W(high)/X(q)  e(spline) 
   0      8    10.053   115.676    0.49E-03    0.72E-03    0.18E-06
   0      8    10.053    87.132    0.49E-03    0.71E-03    0.18E-06
   1      7    10.053     4.429    0.32E-03    0.31E-03    0.18E-06
   1      7    10.053     2.733    0.23E-03    0.19E-03    0.20E-06
 Optimization of the real space projectors (new method)

 maximal supplied QI-value         = 34.20
 optimisation between [QCUT,QGAM] = [  9.92, 20.18] = [ 27.55,114.04] Ry 
 Optimized for a Real-space Cutoff    1.26 Angstroem

   l    n(q)    QCUT    max X(q) W(low)/X(q) W(high)/X(q)  e(spline) 
   0      8     9.919    19.460    0.50E-03    0.23E-03    0.29E-06
   0      8     9.919    12.209    0.48E-03    0.23E-03    0.28E-06
   1      7     9.919     4.655    0.17E-03    0.75E-03    0.30E-06
 Optimization of the real space projectors (new method)

 maximal supplied QI-value         = 18.33
 optimisation between [QCUT,QGAM] = [ 10.08, 20.35] = [ 28.46,115.93] Ry 
 Optimized for a Real-space Cutoff    1.16 Angstroem

   l    n(q)    QCUT    max X(q) W(low)/X(q) W(high)/X(q)  e(spline) 
   0      7    10.082    33.825    0.44E-03    0.14E-03    0.78E-07
   0      7    10.082     8.944    0.33E-03    0.12E-03    0.56E-07
   1      6    10.082     4.214    0.33E-03    0.37E-03    0.39E-07
  PAW_PBE C 08Apr2002                   :
 energy of atom  1       EATOM= -147.1560
 kinetic energy error for atom=    0.0288 (will be added to EATOM!!)
  PAW_PBE H 15Jun2001                   :
 energy of atom  2       EATOM=  -12.4884
 kinetic energy error for atom=    0.0098 (will be added to EATOM!!)
  PAW_PBE Li 17Jan2003                  :
 energy of atom  3       EATOM=   -5.3001
 kinetic energy error for atom=    0.0000 (will be added to EATOM!!)


 POSCAR: C4                                      
  positions in direct lattice
  velocities in cartesian coordinates
 exchange correlation table for  LEXCH =        8
   RHO(1)=    0.500       N(1)  =     2000
   RHO(2)=  100.500       N(2)  =     4000

 VTST: version 3.2, (02/03/18)

 CHAIN: initializing optimizer
 
 OPT: Using VASP Conjugate-Gradient optimizer
 CHAIN: Read ICHAIN            0

 POSCAR: C4                                      
  positions in direct lattice
  velocities in cartesian coordinates



--------------------------------------------------------------------------------------------------------


 ion  position               nearest neighbor table
   1  0.467  0.004  0.435-  93 1.42  25 1.42  28 1.43
   2  0.467  0.504  0.436-  94 1.42  26 1.42  27 1.42
   3  0.434  0.254  0.435-  33 1.42  25 1.42  27 1.42
   4  0.434  0.754  0.435-  34 1.42  26 1.43  28 1.43
   5  0.334  0.003  0.433-  32 1.41  36 1.42  29 1.43
   6  0.334  0.505  0.431-  31 1.42  30 1.43  35 1.43 121 2.29
   7  0.302  0.257  0.428- 115 1.09  31 1.38  29 1.42 121 2.25
   8  0.302  0.757  0.434- 116 1.09  32 1.37  30 1.41
   9  0.401  0.004  0.434-  28 1.42  33 1.42  36 1.43
  10  0.401  0.504  0.433-  27 1.42  34 1.42  35 1.43
  11  0.368  0.254  0.431-  33 1.43  35 1.43  29 1.43 121 2.35
  12  0.367  0.754  0.433-  30 1.42  36 1.42  34 1.43
  13  0.467  0.996  0.564-  86 1.42  45 1.42  40 1.42
  14  0.467  0.496  0.565-  85 1.42  46 1.42  39 1.42
  15  0.434  0.246  0.566-  47 1.42  39 1.42  45 1.43
  16  0.434  0.746  0.565-  48 1.42  40 1.42  46 1.43
  17  0.334  0.996  0.568-  37 1.41  41 1.42  44 1.43
  18  0.334  0.497  0.570-  38 1.42  42 1.43  43 1.44 121 2.49
  19  0.302  0.242  0.572- 117 1.09  37 1.37  43 1.42 121 2.53
  20  0.302  0.743  0.566- 118 1.09  38 1.37  44 1.41
  21  0.401  0.996  0.566-  48 1.42  45 1.42  41 1.43
  22  0.401  0.496  0.567-  46 1.42  47 1.42  42 1.43
  23  0.368  0.246  0.569-  41 1.43  47 1.43  43 1.43 121 2.61
  24  0.367  0.746  0.567-  44 1.42  42 1.43  48 1.43
  25  0.467  0.171  0.435-  72 1.42   1 1.42   3 1.42
  26  0.467  0.671  0.435-  71 1.42   2 1.42   4 1.43
  27  0.434  0.421  0.435-  10 1.42   2 1.42   3 1.42
  28  0.434  0.921  0.435-   9 1.42   4 1.43   1 1.43
  29  0.334  0.170  0.430-   7 1.42   5 1.43  11 1.43 121 2.29
  30  0.334  0.672  0.433-   8 1.41  12 1.42   6 1.43
  31  0.302  0.418  0.428- 120 1.09   7 1.38   6 1.42 121 2.25
  32  0.302  0.918  0.434- 119 1.09   8 1.37   5 1.41
  33  0.401  0.170  0.433-   3 1.42   9 1.42  11 1.43
  34  0.401  0.671  0.434-   4 1.42  10 1.42  12 1.43
  35  0.368  0.421  0.432-  10 1.43  11 1.43   6 1.43 121 2.35
  36  0.367  0.921  0.433-   5 1.42  12 1.42   9 1.43
  37  0.302  0.082  0.570- 113 1.09  19 1.37  17 1.41
  38  0.302  0.583  0.568- 114 1.09  20 1.37  18 1.42
  39  0.467  0.329  0.565-  15 1.42  14 1.42  58 1.42
  40  0.467  0.829  0.564-  16 1.42  13 1.42  57 1.42
  41  0.367  0.079  0.568-  17 1.42  23 1.43  21 1.43
  42  0.367  0.579  0.568-  24 1.43  18 1.43  22 1.43
  43  0.334  0.329  0.571-  19 1.42  23 1.43  18 1.44 121 2.14
  44  0.334  0.829  0.567-  20 1.41  24 1.42  17 1.43
  45  0.434  0.079  0.565-  21 1.42  13 1.42  15 1.43
  46  0.434  0.579  0.566-  22 1.42  14 1.42  16 1.43
  47  0.401  0.329  0.567-  15 1.42  22 1.42  23 1.43
  48  0.401  0.829  0.566-  21 1.42  16 1.42  24 1.43
  49  0.533  0.996  0.564-  80 1.42  86 1.42  77 1.42
  50  0.533  0.496  0.564-  79 1.42  78 1.42  85 1.43
  51  0.566  0.746  0.564-  87 1.42  77 1.42  79 1.43
  52  0.566  0.246  0.563-  88 1.42  78 1.42  80 1.43
  53  0.666  0.996  0.564-  84 1.41  90 1.42  81 1.43
  54  0.666  0.496  0.564-  83 1.41  89 1.42  82 1.43
  55  0.698  0.742  0.564- 107 1.09  83 1.37  81 1.41
  56  0.698  0.242  0.564- 108 1.09  84 1.37  82 1.41
  57  0.500  0.746  0.564-  85 1.42  77 1.42  40 1.42
  58  0.500  0.246  0.564-  86 1.42  78 1.42  39 1.42
  59  0.599  0.995  0.563-  87 1.42  80 1.42  90 1.43
  60  0.599  0.495  0.563-  88 1.42  79 1.42  89 1.43
  61  0.633  0.746  0.564-  81 1.42  89 1.43  87 1.43
  62  0.633  0.246  0.563-  82 1.42  90 1.43  88 1.43
  63  0.533  0.004  0.436- 101 1.42  96 1.42  93 1.43
  64  0.533  0.504  0.436- 102 1.42  95 1.42  94 1.42
  65  0.566  0.754  0.436- 103 1.42  95 1.42 101 1.43
  66  0.566  0.254  0.437- 104 1.42  96 1.42 102 1.43
  67  0.666  0.004  0.437-  91 1.41  97 1.42 100 1.43
  68  0.666  0.504  0.436-  92 1.41  98 1.42  99 1.43
  69  0.698  0.758  0.437- 109 1.09  91 1.37  99 1.41
  70  0.698  0.258  0.436- 110 1.09  92 1.37 100 1.41
  71  0.500  0.754  0.436-  26 1.42  93 1.42  95 1.43
  72  0.500  0.254  0.436-  94 1.42  25 1.42  96 1.42
  73  0.599  0.005  0.437- 104 1.42 101 1.42  97 1.43
  74  0.599  0.505  0.437- 103 1.42 102 1.42  98 1.43
  75  0.633  0.754  0.437-  99 1.42  97 1.43 103 1.43
  76  0.633  0.254  0.437- 100 1.42  98 1.43 104 1.43
  77  0.533  0.829  0.564-  51 1.42  57 1.42  49 1.42
  78  0.533  0.329  0.564-  52 1.42  58 1.42  50 1.42
  79  0.566  0.579  0.564-  50 1.42  60 1.42  51 1.43
  80  0.566  0.079  0.563-  49 1.42  59 1.42  52 1.43
  81  0.666  0.828  0.564-  55 1.41  61 1.42  53 1.43
  82  0.666  0.328  0.564-  56 1.41  62 1.42  54 1.43
  83  0.698  0.582  0.564- 112 1.09  55 1.37  54 1.41
  84  0.698  0.082  0.564- 111 1.09  56 1.37  53 1.41
  85  0.500  0.579  0.564-  57 1.42  14 1.42  50 1.43
  86  0.500  0.079  0.564-  58 1.42  13 1.42  49 1.42
  87  0.599  0.829  0.564-  59 1.42  51 1.42  61 1.43
  88  0.599  0.329  0.563-  60 1.42  52 1.42  62 1.43
  89  0.633  0.579  0.563-  54 1.42  61 1.43  60 1.43
  90  0.633  0.079  0.563-  53 1.42  62 1.43  59 1.43
  91  0.698  0.918  0.437- 105 1.09  69 1.37  67 1.41
  92  0.698  0.418  0.436- 106 1.09  70 1.37  68 1.41
  93  0.500  0.921  0.436-   1 1.42  71 1.42  63 1.43
  94  0.500  0.421  0.436-   2 1.42  72 1.42  64 1.42
  95  0.533  0.671  0.436-  65 1.42  64 1.42  71 1.43
  96  0.533  0.171  0.436-  66 1.42  72 1.42  63 1.42
  97  0.633  0.921  0.437-  67 1.42  75 1.43  73 1.43
  98  0.633  0.421  0.437-  68 1.42  76 1.43  74 1.43
  99  0.666  0.672  0.436-  69 1.41  75 1.42  68 1.43
 100  0.666  0.172  0.436-  70 1.41  76 1.42  67 1.43
 101  0.566  0.921  0.436-  63 1.42  73 1.42  65 1.43
 102  0.566  0.421  0.437-  64 1.42  74 1.42  66 1.43
 103  0.599  0.671  0.437-  74 1.42  65 1.42  75 1.43
 104  0.599  0.171  0.437-  73 1.42  66 1.42  76 1.43
 105  0.724  0.979  0.437-  91 1.09
 106  0.724  0.479  0.437-  92 1.09
 107  0.724  0.803  0.563-  55 1.09
 108  0.724  0.303  0.563-  56 1.09
 109  0.724  0.697  0.437-  69 1.09
 110  0.724  0.197  0.437-  70 1.09
 111  0.724  0.021  0.563-  84 1.09
 112  0.724  0.521  0.564-  83 1.09
 113  0.276  0.021  0.570-  37 1.09
 114  0.276  0.522  0.568-  38 1.09
 115  0.276  0.196  0.426-   7 1.09
 116  0.276  0.697  0.436-   8 1.09
 117  0.276  0.302  0.574-  19 1.09
 118  0.276  0.803  0.565-  20 1.09
 119  0.276  0.978  0.436-  32 1.09
 120  0.276  0.479  0.426-  31 1.09
 121  0.330  0.337  0.495-  43 2.14  31 2.25   7 2.25  29 2.29   6 2.29  11 2.35  35 2.35  18 2.49
                            19 2.53  23 2.61

  LATTYP: Found a simple orthorhombic cell.
 ALAT       =     8.5469398499
 B/A-ratio  =     3.2529857904
 C/A-ratio  =     4.3551772818
  
  Lattice vectors:
  
 A1 = (   0.0000000000,   8.5469398499,   0.0000000000)
 A2 = (   0.0000000000,   0.0000000000, -27.8030738831)
 A3 = ( -37.2234382629,   0.0000000000,   0.0000000000)


Analysis of symmetry for initial positions (statically):
=====================================================================
 Subroutine PRICEL returns:
 Original cell was already a primitive cell.
 

 Routine SETGRP: Setting up the symmetry group for a 
 simple orthorhombic supercell.


 Subroutine GETGRP returns: Found  1 space group operations
 (whereof  1 operations were pure point group operations)
 out of a pool of  8 trial point group operations.


The static configuration has the point symmetry C_1 .


Analysis of symmetry for dynamics (positions and initial velocities):
=====================================================================
 Subroutine PRICEL returns:
 Original cell was already a primitive cell.
 

 Routine SETGRP: Setting up the symmetry group for a 
 simple orthorhombic supercell.


 Subroutine GETGRP returns: Found  1 space group operations
 (whereof  1 operations were pure point group operations)
 out of a pool of  8 trial point group operations.


The dynamic configuration has the point symmetry C_1 .


Analysis of structural, dynamic, and magnetic symmetry:
=====================================================================
 Subroutine PRICEL returns:
 Original cell was already a primitive cell.
 

 Routine SETGRP: Setting up the symmetry group for a 
 simple orthorhombic supercell.


 Subroutine GETGRP returns: Found  1 space group operations
 (whereof  1 operations were pure point group operations)
 out of a pool of  8 trial point group operations.


The magnetic configuration has the point symmetry C_1 .


 Subroutine INISYM returns: Found  1 space group operations
 (whereof  1 operations are pure point group operations),
 and found     1 'primitive' translations



 KPOINTS: Regular k-point mesh                    

Automatic generation of k-mesh.
Space group operators:
 irot       det(A)        alpha          n_x          n_y          n_z        tau_x        tau_y        tau_z
    1     1.000000     0.000000     1.000000     0.000000     0.000000     0.000000     0.000000     0.000000
 
 Subroutine IBZKPT returns following result:
 ===========================================
 
 Found      5 irreducible k-points:
 
 Following reciprocal coordinates:
            Coordinates               Weight
  0.000000  0.000000  0.000000      1.000000
  0.000000  0.125000  0.000000      2.000000
  0.000000  0.250000  0.000000      2.000000
  0.000000  0.375000  0.000000      2.000000
  0.000000  0.500000  0.000000      1.000000
 
 Following cartesian coordinates:
            Coordinates               Weight
  0.000000  0.000000  0.000000      1.000000
  0.000000  0.014625  0.000000      2.000000
  0.000000  0.029250  0.000000      2.000000
  0.000000  0.043875  0.000000      2.000000
  0.000000  0.058500  0.000000      1.000000
 


--------------------------------------------------------------------------------------------------------




 Dimension of arrays:
   k-points           NKPTS =      5   k-points in BZ     NKDIM =      5   number of bands    NBANDS=    340
   number of dos      NEDOS =    301   number of ions     NIONS =    121
   non local maximal  LDIM  =      4   non local SUM 2l+1 LMDIM =      8
   total plane-waves  NPLWV = ******
   max r-space proj   IRMAX =   1228   max aug-charges    IRDMAX=   4283
   dimension x,y,z NGX =   192 NGY =   42 NGZ =  140
   dimension x,y,z NGXF=   384 NGYF=   84 NGZF=  280
   support grid    NGXF=   384 NGYF=   84 NGZF=  280
   ions per type =             104  16   1
   NGX,Y,Z   is equivalent  to a cutoff of   8.58,  8.17,  8.37 a.u.
   NGXF,Y,Z  is equivalent  to a cutoff of  17.15, 16.34, 16.74 a.u.

 SYSTEM =  unknown system                          
 POSCAR =  C4                                      

 Startparameter for this run:
   NWRITE =      2    write-flag & timer
   PREC   = normal    normal or accurate (medium, high low for compatibility)
   ISTART =      0    job   : 0-new  1-cont  2-samecut
   ICHARG =      2    charge: 1-file 2-atom 10-const
   ISPIN  =      2    spin polarized calculation?
   LNONCOLLINEAR =      F non collinear calculations
   LSORBIT =      F    spin-orbit coupling
   INIWAV =      1    electr: 0-lowe 1-rand  2-diag
   LASPH  =      F    aspherical Exc in radial PAW
   METAGGA=      F    non-selfconsistent MetaGGA calc.

 Electronic Relaxation 1
   ENCUT  =  400.0 eV  29.40 Ry    5.42 a.u.  60.70 13.94 45.34*2*pi/ulx,y,z
   ENINI  =  400.0     initial cutoff
   ENAUG  =  644.9 eV  augmentation charge cutoff
   NELM   =    100;   NELMIN=  2; NELMDL= -5     # of ELM steps 
   EDIFF  = 0.1E-03   stopping-criterion for ELM
   LREAL  =      T    real-space projection
   NLSPLINE    = F    spline interpolate recip. space projectors
   LCOMPAT=      F    compatible to vasp.4.4
   GGA_COMPAT  = T    GGA compatible to vasp.4.4-vasp.4.6
   LMAXPAW     = -100 max onsite density
   LMAXMIX     =    2 max onsite mixed and CHGCAR
   VOSKOWN=      0    Vosko Wilk Nusair interpolation
   ROPT   =   -0.00050  -0.00050  -0.00050
 Ionic relaxation
   EDIFFG = -.3E-01   stopping-criterion for IOM
   NSW    =      0    number of steps for IOM
   NBLOCK =      1;   KBLOCK =      1    inner block; outer block 
   IBRION =     -1    ionic relax: 0-MD 1-quasi-New 2-CG
   NFREE  =      1    steps in history (QN), initial steepest desc. (CG)
   ISIF   =      2    stress and relaxation
   IWAVPR =     10    prediction:  0-non 1-charg 2-wave 3-comb
   ISYM   =      2    0-nonsym 1-usesym 2-fastsym
   LCORR  =      T    Harris-Foulkes like correction to forces

   POTIM  = 0.5000    time-step for ionic-motion
   TEIN   =    0.0    initial temperature
   TEBEG  =    0.0;   TEEND  =   0.0 temperature during run
   SMASS  =  -3.00    Nose mass-parameter (am)
   estimated Nose-frequenzy (Omega)   =  0.10E-29 period in steps =****** mass=  -0.317E-25a.u.
   SCALEE = 1.0000    scale energy and forces
   NPACO  =    256;   APACO  = 16.0  distance and # of slots for P.C.
   PSTRESS=    0.0 pullay stress

  Mass of Ions in am
   POMASS =  12.01  1.00  7.01
  Ionic Valenz
   ZVAL   =   4.00  1.00  1.00
  Atomic Wigner-Seitz radii
   RWIGS  =  -1.00 -1.00 -1.00
  virtual crystal weights 
   VCA    =   1.00  1.00  1.00
   NELECT =     433.0000    total number of electrons
   NUPDOWN=      -1.0000    fix difference up-down

 DOS related values:
   EMIN   =  10.00;   EMAX   =-10.00  energy-range for DOS
   EFERMI =   0.00
   ISMEAR =     0;   SIGMA  =   0.10  broadening in eV -4-tet -1-fermi 0-gaus

 Electronic relaxation 2 (details)
   IALGO  =     38    algorithm
   LDIAG  =      T    sub-space diagonalisation (order eigenvalues)
   LSUBROT=      F    optimize rotation matrix (better conditioning)
   TURBO    =      0    0=normal 1=particle mesh
   IRESTART =      0    0=no restart 2=restart with 2 vectors
   NREBOOT  =      0    no. of reboots
   NMIN     =      0    reboot dimension
   EREF     =   0.00    reference energy to select bands
   IMIX   =      4    mixing-type and parameters
     AMIX     =   0.40;   BMIX     =  1.00
     AMIX_MAG =   1.60;   BMIX_MAG =  1.00
     AMIN     =   0.10
     WC   =   100.;   INIMIX=   1;  MIXPRE=   1;  MAXMIX= -45

 Intra band minimization:
   WEIMIN = 0.0000     energy-eigenvalue tresh-hold
   EBREAK =  0.74E-07  absolut break condition
   DEPER  =   0.30     relativ break condition  

   TIME   =   0.40     timestep for ELM

  volume/ion in A,a.u.               =      73.10       493.32
  Fermi-wavevector in a.u.,A,eV,Ry     =   0.598868  1.131696  4.879626  0.358642
  Thomas-Fermi vector in A             =   1.650134

 Write flags
   LWAVE        =      T    write WAVECAR
   LDOWNSAMPLE  =      F    k-point downsampling of WAVECAR
   LCHARG       =      T    write CHGCAR
   LVTOT        =      F    write LOCPOT, total local potential
   LVHAR        =      F    write LOCPOT, Hartree potential only
   LELF         =      F    write electronic localiz. function (ELF)
   LORBIT       =      0    0 simple, 1 ext, 2 COOP (PROOUT), +10 PAW based schemes


 Dipole corrections
   LMONO  =      F    monopole corrections only (constant potential shift)
   LDIPOL =      F    correct potential (dipole corrections)
   IDIPOL =      0    1-x, 2-y, 3-z, 4-all directions 
   EPSILON=  1.0000000 bulk dielectric constant

 Exchange correlation treatment:
   GGA     =    --    GGA type
   LEXCH   =     8    internal setting for exchange type
   VOSKOWN=      0    Vosko Wilk Nusair interpolation
   LHFCALC =     F    Hartree Fock is set to
   LHFONE  =     F    Hartree Fock one center treatment
   AEXX    =    0.0000 exact exchange contribution

 Linear response parameters
   LEPSILON=     F    determine dielectric tensor
   LRPA    =     F    only Hartree local field effects (RPA)
   LNABLA  =     F    use nabla operator in PAW spheres
   LVEL    =     F    velocity operator in full k-point grid
   LINTERFAST=   F  fast interpolation
   KINTER  =     0    interpolate to denser k-point grid
   CSHIFT  =0.1000    complex shift for real part using Kramers Kronig
   OMEGAMAX=  -1.0    maximum frequency
   DEG_THRESHOLD= 0.2000000E-02 threshold for treating states as degnerate
   RTIME   =   -0.100 relaxation time in fs
  (WPLASMAI=    0.000 imaginary part of plasma frequency in eV, 0.658/RTIME)
   DFIELD  = 0.0000000 0.0000000 0.0000000 field for delta impulse in time

 Orbital magnetization related:
   ORBITALMAG=     F  switch on orbital magnetization
   LCHIMAG   =     F  perturbation theory with respect to B field
   DQ        =  0.001000  dq finite difference perturbation B field
   LLRAUG    =     F  two centre corrections for induced B field



--------------------------------------------------------------------------------------------------------


 Static calculation
 charge density and potential will be updated during run
 spin polarized calculation
 Variant of blocked Davidson
 Davidson routine will perform the subspace rotation
 perform sub-space diagonalisation
    after iterative eigenvector-optimisation
 modified Broyden-mixing scheme, WC =      100.0
 initial mixing is a Kerker type mixing with AMIX =  0.4000 and BMIX =      1.0000
 Hartree-type preconditioning will be used
 using additional bands          123
 real space projection scheme for non local part
 use partial core corrections
 calculate Harris-corrections to forces   (improved forces if not selfconsistent)
 use gradient corrections 
 use of overlap-Matrix (Vanderbilt PP)
 Gauss-broadening in eV      SIGMA  =   0.10


--------------------------------------------------------------------------------------------------------


  energy-cutoff  :      400.00
  volume of cell :     8845.45
      direct lattice vectors                 reciprocal lattice vectors
    37.223438263  0.000000000  0.000000000     0.026864794  0.000000000  0.000000000
     0.000000000  8.546939850  0.000000000     0.000000000  0.117000940  0.000000000
     0.000000000  0.000000000 27.803073883     0.000000000  0.000000000  0.035967246

  length of vectors
    37.223438263  8.546939850 27.803073883     0.026864794  0.117000940  0.035967246



 k-points in units of 2pi/SCALE and weight: Regular k-point mesh                    
   0.00000000  0.00000000  0.00000000       0.125
   0.00000000  0.01462512  0.00000000       0.250
   0.00000000  0.02925024  0.00000000       0.250
   0.00000000  0.04387535  0.00000000       0.250
   0.00000000  0.05850047  0.00000000       0.125

 k-points in reciprocal lattice and weights: Regular k-point mesh                    
   0.00000000  0.00000000  0.00000000       0.125
   0.00000000  0.12500000  0.00000000       0.250
   0.00000000  0.25000000  0.00000000       0.250
   0.00000000  0.37500000  0.00000000       0.250
   0.00000000  0.50000000  0.00000000       0.125

 position of ions in fractional coordinates (direct lattice) 
   0.46691506  0.00411503  0.43546060
   0.46695496  0.50410740  0.43550781
   0.43381041  0.25406881  0.43457991
   0.43374267  0.75402090  0.43476231
   0.33412640  0.00285282  0.43265796
   0.33416251  0.50461092  0.43055116
   0.30166648  0.25670195  0.42767344
   0.30168722  0.75724315  0.43431627
   0.40068078  0.00396983  0.43379474
   0.40077547  0.50439074  0.43348616
   0.36753417  0.25365784  0.43147906
   0.36739485  0.75406135  0.43333119
   0.46695882  0.99586787  0.56440914
   0.46695306  0.49583610  0.56476020
   0.43385248  0.24585745  0.56571759
   0.43380243  0.74592106  0.56513260
   0.33425152  0.99589701  0.56760221
   0.33423870  0.49685878  0.56955886
   0.30170589  0.24212401  0.57182735
   0.30178940  0.74274669  0.56616028
   0.40074611  0.99566673  0.56600703
   0.40076356  0.49589147  0.56711226
   0.36758084  0.24567660  0.56906080
   0.36744581  0.74609310  0.56661974
   0.46695155  0.17077781  0.43548649
   0.46691206  0.67076226  0.43546192
   0.43380917  0.42077732  0.43457735
   0.43374201  0.92080842  0.43474450
   0.33416659  0.17016611  0.43045251
   0.33413094  0.67190563  0.43269872
   0.30165337  0.41801951  0.42776700
   0.30166844  0.91750447  0.43424787
   0.40077740  0.17047671  0.43344610
   0.40068344  0.67087275  0.43379128
   0.36752640  0.42113762  0.43151176
   0.36738762  0.92067992  0.43331524
   0.30180975  0.08175122  0.56962611
   0.30169561  0.58269309  0.56805011
   0.46696752  0.32915016  0.56477025
   0.46693630  0.82917257  0.56440373
   0.36746959  0.07868352  0.56763713
   0.36749887  0.57940698  0.56777969
   0.33429895  0.32880259  0.57149934
   0.33423307  0.82861510  0.56656106
   0.43382277  0.07911507  0.56529124
   0.43381445  0.57917909  0.56551026
   0.40080807  0.32933388  0.56743752
   0.40072128  0.82923910  0.56583344
   0.53323543  0.99579372  0.56364645
   0.53323811  0.49576070  0.56370258
   0.56634119  0.74577742  0.56355256
   0.56635427  0.24577706  0.56341531
   0.66580917  0.99596559  0.56358119
   0.66581516  0.49597212  0.56350461
   0.69822132  0.74207652  0.56351889
   0.69821293  0.24213471  0.56353510
   0.50007956  0.74576395  0.56400995
   0.50010295  0.24572197  0.56400682
   0.59944014  0.99531475  0.56341975
   0.59944716  0.49529457  0.56340802
   0.63271597  0.74558272  0.56350152
   0.63271827  0.24561976  0.56347578
   0.53319706  0.00420813  0.43629937
   0.53321291  0.50416373  0.43642570
   0.56631701  0.75416979  0.43644650
   0.56633258  0.25417852  0.43665383
   0.66579239  0.00394022  0.43652926
   0.66579149  0.50399123  0.43645070
   0.69819663  0.75781280  0.43658207
   0.69819250  0.25780255  0.43648870
   0.50003372  0.75412771  0.43594613
   0.50007325  0.25417300  0.43612009
   0.59941143  0.00462833  0.43657506
   0.59941527  0.50461886  0.43662407
   0.63269420  0.75437422  0.43652537
   0.63269212  0.25436690  0.43650668
   0.53323225  0.82908139  0.56363287
   0.53325219  0.32905119  0.56361475
   0.56634819  0.57885218  0.56355014
   0.56634856  0.07884253  0.56346488
   0.66580252  0.82812731  0.56359063
   0.66580108  0.32815112  0.56352557
   0.69823920  0.58194249  0.56355948
   0.69824064  0.08194727  0.56360514
   0.50007948  0.57918280  0.56410064
   0.50009231  0.07916737  0.56397086
   0.59943955  0.82908831  0.56351149
   0.59944978  0.32908199  0.56342117
   0.63272621  0.57868307  0.56346114
   0.63272025  0.07869708  0.56349885
   0.69821305  0.91802551  0.43652406
   0.69821057  0.41802384  0.43642372
   0.50003301  0.92084427  0.43591737
   0.50007157  0.42077746  0.43609204
   0.53319987  0.67085236  0.43630015
   0.53321876  0.17089226  0.43642713
   0.63270021  0.92125736  0.43654236
   0.63269822  0.42128311  0.43651245
   0.66578255  0.67185238  0.43649745
   0.66578258  0.17180253  0.43644101
   0.56631904  0.92110861  0.43643528
   0.56633275  0.42111271  0.43664030
   0.59941056  0.67090004  0.43654089
   0.59941746  0.17090472  0.43660673
   0.72392706  0.97860685  0.43655230
   0.72393392  0.47862043  0.43662385
   0.72392166  0.80277285  0.56330481
   0.72391940  0.30276215  0.56337457
   0.72389599  0.69713110  0.43669422
   0.72390013  0.19711160  0.43676034
   0.72395476  0.02134016  0.56344758
   0.72395105  0.52135285  0.56350245
   0.27608487  0.02118075  0.56991328
   0.27593265  0.52232610  0.56834823
   0.27601524  0.19590749  0.42584450
   0.27598409  0.69663954  0.43589636
   0.27601203  0.30246370  0.57442752
   0.27607988  0.80320636  0.56454867
   0.27594505  0.97797006  0.43573352
   0.27598913  0.47866458  0.42596036
   0.33023869  0.33703451  0.49473080

 position of ions in cartesian coordinates  (Angst):
  17.38018399  0.03517090 12.10714326
  17.38166923  4.30857560 12.10845593
  16.14791506  2.17151080 12.08265726
  16.14539365  6.44457127 12.08772862
  12.43733331  0.02438289 12.02922131
  12.43867741  4.31287921 11.97064563
  11.22906364  2.19401612 11.89063616
  11.22983560  6.47211165 12.07532745
  14.91471636  0.03392993 12.06082732
  14.91824096  4.31099732 12.05224768
  13.68088566  2.16799832 11.99644431
  13.67569942  6.44491696 12.04793910
  17.38181287  8.51162278 15.69230906
  17.38159842  4.23788135 15.70206964
  16.14948091  2.10132879 15.72868785
  16.14761785  6.37534240 15.71242350
  12.44199084  8.51187188 15.78108609
  12.44151361  4.24662212 15.83548706
  11.23053055  2.06941936 15.89855802
  11.23363892  6.34821127 15.74099623
  14.91714811  8.50990364 15.73673533
  14.91779776  4.23835453 15.76746396
  13.68262271  2.09978309 15.82163955
  13.67759634  6.37681283 15.75377038
  17.38154233  1.45962766 12.10786319
  17.38007231  5.73296468 12.10717980
  16.14786891  3.59635846 12.08258610
  16.14536900  7.87009421 12.08723334
  12.43882944  1.45439950 11.96790284
  12.43750258  5.74273701 12.03035459
  11.22857566  3.57278762 11.89323753
  11.22913645  7.84185552 12.07342559
  14.91831275  1.45705421 12.05113405
  14.91481530  5.73390900 12.06073113
  13.68059612  3.59943788 11.99735336
  13.67543052  7.86899589 12.04749577
  11.23439676  0.69872280 15.83735695
  11.23014809  4.98024279 15.79353908
  17.38213669  2.81322666 15.70234908
  17.38097463  7.08688808 15.69215847
  13.67848173  0.67250332 15.78205694
  13.67957142  4.95215658 15.78602076
  12.44375632  2.81025596 15.88943844
  12.44130390  7.08212339 15.75213909
  16.14837505  0.67619174 15.71683400
  16.14806529  4.95020888 15.72292363
  14.91945451  2.81479685 15.77650736
  14.91622373  7.08745673 15.73190900
  19.84885609  8.51098900 15.67110389
  19.84895573  4.23723686 15.67266435
  21.08116623  6.37411472 15.66849334
  21.08165317  2.10064178 15.66467737
  24.78370668  8.51245801 15.66928959
  24.78392965  4.23904389 15.66716042
  25.99019820  6.34248340 15.66755745
  25.98988605  2.06951081 15.66800803
  18.61468049  6.37399960 15.68121032
  18.61555143  2.10017092 15.68112320
  22.31322298  8.50689527 15.66480083
  22.31348423  4.23325289 15.66447473
  23.55186381  6.37245069 15.66707428
  23.55194935  2.09929729 15.66635866
  19.84742781  0.03596659 12.13046357
  19.84801799  4.30905705 12.13397596
  21.08026628  6.44584379 12.13455416
  21.08084574  2.17244854 12.14031864
  24.78308198  0.03367680 12.13685534
  24.78304840  4.30758276 12.13467113
  25.98927927  6.47698038 12.13832353
  25.98912527  2.20342288 12.13572751
  18.61297419  6.44548419 12.12064242
  18.61444590  2.17240132 12.12547917
  22.31215431  0.03955807 12.13812878
  22.31229739  4.31294706 12.13949131
  23.55105331  6.44759112 12.13674711
  23.55097605  2.17405859 12.13622749
  19.84873769  7.08610880 15.67072628
  19.84947986  2.81238076 15.67022248
  21.08142689  4.94741480 15.66842608
  21.08144066  0.67386234 15.66605578
  24.78345908  7.07795429 15.66955188
  24.78340553  2.80468791 15.66774303
  25.99086391  4.97382742 15.66868598
  25.99091742  0.70039842 15.66995544
  18.61467773  4.95024053 15.68373164
  18.61515540  0.67663872 15.68012339
  22.31320115  7.08616787 15.66735172
  22.31358179  2.81264398 15.66484054
  23.55224500  4.94596938 15.66595170
  23.55202302  0.67261922 15.66700026
  25.98989030  7.84630884 12.13671075
  25.98979791  3.57282460 12.13392082
  18.61294774  7.87040058 12.11984279
  18.61438318  3.59635963 12.12469930
  19.84753257  5.73373475 12.13048534
  19.84823562  1.46060587 12.13401568
  23.55127726  7.87393128 12.13721935
  23.55120308  3.60068140 12.13638784
  24.78271548  5.74228191 12.13597079
  24.78271665  1.46838590 12.13440162
  21.08034182  7.87265993 12.13424245
  21.08085200  3.59922503 12.13994242
  22.31212204  5.73414231 12.13717865
  22.31237879  1.46071237 12.13900929
  26.94705418  8.36409387 12.13749576
  26.94730975  4.09074005 12.13948517
  26.94685322  6.86125129 15.66160515
  26.94676910  2.58768986 15.66354483
  26.94589770  5.95833759 12.14144164
  26.94605173  1.68470096 12.14327999
  26.94808518  0.18239303 15.66557476
  26.94794713  4.45597142 15.66710035
  10.27682801  0.18103060 15.84534098
  10.27116198  4.46428976 15.80182792
  10.27423608  1.67440953 11.83978603
  10.27307668  5.95413627 12.11925870
  10.27411681  2.58513906 15.97085072
  10.27664223  6.86495643 15.69618846
  10.27162343  8.35865126 12.11473126
  10.27326433  4.09111741 11.84300739
  12.29261933  2.88061364 13.75503694



--------------------------------------------------------------------------------------------------------


 k-point  1 :   0.0000 0.0000 0.0000  plane waves:  160581
 k-point  2 :   0.0000 0.1250 0.0000  plane waves:  160598
 k-point  3 :   0.0000 0.2500 0.0000  plane waves:  160676
 k-point  4 :   0.0000 0.3750 0.0000  plane waves:  160782
 k-point  5 :   0.0000 0.5000 0.0000  plane waves:  160764

 maximum and minimum number of plane-waves per node :     40304    39998

 maximum number of plane-waves:    160782
 maximum index in each direction: 
   IXMAX=   60   IYMAX=   13   IZMAX=   45
   IXMIN=  -60   IYMIN=  -14   IZMIN=  -45


 real space projection operators:
  total allocation   :       8127.73 KBytes
  max/ min on nodes  :       2037.27       2028.72


 parallel 3D FFT for wavefunctions:
    minimum data exchange during FFTs selected (reduces bandwidth)
 parallel 3D FFT for charge:
    minimum data exchange during FFTs selected (reduces bandwidth)


 total amount of memory used by VASP MPI-rank0   315296. kBytes
=======================================================================

   base      :      30000. kBytes
   nonlr-proj:       4968. kBytes
   fftplans  :      16574. kBytes
   grid      :      43462. kBytes
   one-center:        190. kBytes
   wavefun   :     220102. kBytes

     INWAV:  cpu time    0.0001: real time    0.0001
 Broyden mixing: mesh for mixing (old mesh)
   NGX =121   NGY = 27   NGZ = 91
  (NGX  =384   NGY  = 84   NGZ  =280)
  gives a total of 297297 points

 initial charge density was supplied:
 charge density of overlapping atoms calculated
 number of electron     433.0000000 magnetization     121.0000000
 keeping initial charge density in first step


--------------------------------------------------------------------------------------------------------


 Maximum index for non-local projection operator          296
 Maximum index for augmentation-charges          158 (set IRDMAX)


--------------------------------------------------------------------------------------------------------


 First call to EWALD:  gamma=   0.086
 Maximum number of real-space cells 2x 6x 2
 Maximum number of reciprocal cells 5x 1x 4

    FEWALD:  cpu time    0.0045: real time    0.0045


--------------------------------------- Iteration      1(   1)  ---------------------------------------


    POTLOK:  cpu time    0.3218: real time    0.3268
    SETDIJ:  cpu time    0.0324: real time    0.0325
     EDDAV:  cpu time   56.1813: real time   56.5014
       DOS:  cpu time    0.0026: real time    0.0026
    --------------------------------------------
      LOOP:  cpu time   56.5380: real time   56.8634

 eigenvalue-minimisations  :  8340
 total energy-change (2. order) : 0.3609651E+04  (-0.1290485E+05)
 number of electron     433.0000000 magnetization     121.0000000
 augmentation part      433.0000000 magnetization     121.0000000

 Free energy of the ion-electron system (eV)
  ---------------------------------------------------
  alpha Z        PSCENC =       106.58810953
  Ewald energy   TEWEN  =    182100.73797372
  -Hartree energ DENC   =   -192886.75798822
  -exchange      EXHF   =         0.00000000
  -V(xc)+E(xc)   XCENC  =      1427.30899353
  PAW double counting   =     11309.19404398   -11362.06715896
  entropy T*S    EENTRO =        -0.30146530
  eigenvalues    EBANDS =     -2591.24142294
  atomic energy  EATOM  =     15506.18949415
  Solvation  Ediel_sol  =         0.00000000
  ---------------------------------------------------
  free energy    TOTEN  =      3609.65057950 eV

  energy without entropy =     3609.95204480  energy(sigma->0) =     3609.80131215


--------------------------------------------------------------------------------------------------------




--------------------------------------- Iteration      1(   2)  ---------------------------------------


     EDDAV:  cpu time   67.8109: real time   68.1832
       DOS:  cpu time    0.0022: real time    0.0022
    --------------------------------------------
      LOOP:  cpu time   67.8131: real time   68.1854

 eigenvalue-minimisations  : 10680
 total energy-change (2. order) :-0.3728043E+04  (-0.3375496E+04)
 number of electron     433.0000000 magnetization     121.0000000
 augmentation part      433.0000000 magnetization     121.0000000

 Free energy of the ion-electron system (eV)
  ---------------------------------------------------
  alpha Z        PSCENC =       106.58810953
  Ewald energy   TEWEN  =    182100.73797372
  -Hartree energ DENC   =   -192886.75798822
  -exchange      EXHF   =         0.00000000
  -V(xc)+E(xc)   XCENC  =      1427.30899353
  PAW double counting   =     11309.19404398   -11362.06715896
  entropy T*S    EENTRO =        -0.02994361
  eigenvalues    EBANDS =     -6319.55557201
  atomic energy  EATOM  =     15506.18949415
  Solvation  Ediel_sol  =         0.00000000
  ---------------------------------------------------
  free energy    TOTEN  =      -118.39204788 eV

  energy without entropy =     -118.36210428  energy(sigma->0) =     -118.37707608


--------------------------------------------------------------------------------------------------------




--------------------------------------- Iteration      1(   3)  ---------------------------------------


     EDDAV:  cpu time   60.3912: real time   60.7192
       DOS:  cpu time    0.0011: real time    0.0011
    --------------------------------------------
      LOOP:  cpu time   60.3923: real time   60.7203

 eigenvalue-minimisations  :  9290
 total energy-change (2. order) :-0.8649576E+03  (-0.8612396E+03)
 number of electron     433.0000000 magnetization     121.0000000
 augmentation part      433.0000000 magnetization     121.0000000

 Free energy of the ion-electron system (eV)
  ---------------------------------------------------
  alpha Z        PSCENC =       106.58810953
  Ewald energy   TEWEN  =    182100.73797372
  -Hartree energ DENC   =   -192886.75798822
  -exchange      EXHF   =         0.00000000
  -V(xc)+E(xc)   XCENC  =      1427.30899353
  PAW double counting   =     11309.19404398   -11362.06715896
  entropy T*S    EENTRO =        -0.02687013
  eigenvalues    EBANDS =     -7184.51623450
  atomic energy  EATOM  =     15506.18949415
  Solvation  Ediel_sol  =         0.00000000
  ---------------------------------------------------
  free energy    TOTEN  =      -983.34963689 eV

  energy without entropy =     -983.32276677  energy(sigma->0) =     -983.33620183


--------------------------------------------------------------------------------------------------------




--------------------------------------- Iteration      1(   4)  ---------------------------------------


     EDDAV:  cpu time   59.0588: real time   59.4006
       DOS:  cpu time    0.0012: real time    0.0012
    --------------------------------------------
      LOOP:  cpu time   59.0599: real time   59.4018

 eigenvalue-minimisations  :  9050
 total energy-change (2. order) :-0.3600751E+02  (-0.3583409E+02)
 number of electron     433.0000000 magnetization     121.0000000
 augmentation part      433.0000000 magnetization     121.0000000

 Free energy of the ion-electron system (eV)
  ---------------------------------------------------
  alpha Z        PSCENC =       106.58810953
  Ewald energy   TEWEN  =    182100.73797372
  -Hartree energ DENC   =   -192886.75798822
  -exchange      EXHF   =         0.00000000
  -V(xc)+E(xc)   XCENC  =      1427.30899353
  PAW double counting   =     11309.19404398   -11362.06715896
  entropy T*S    EENTRO =        -0.03012340
  eigenvalues    EBANDS =     -7220.52049129
  atomic energy  EATOM  =     15506.18949415
  Solvation  Ediel_sol  =         0.00000000
  ---------------------------------------------------
  free energy    TOTEN  =     -1019.35714695 eV

  energy without entropy =    -1019.32702355  energy(sigma->0) =    -1019.34208525


--------------------------------------------------------------------------------------------------------




--------------------------------------- Iteration      1(   5)  ---------------------------------------


     EDDAV:  cpu time   62.9636: real time   63.3137
       DOS:  cpu time    0.0011: real time    0.0011
    CHARGE:  cpu time    1.5134: real time    1.5223
    MIXING:  cpu time    0.0068: real time    0.0985
    --------------------------------------------
      LOOP:  cpu time   64.4849: real time   64.9356

 eigenvalue-minimisations  :  9770
 total energy-change (2. order) :-0.8404578E+00  (-0.8383594E+00)
 number of electron     433.0000402 magnetization     115.7555677
 augmentation part       11.3993766 magnetization     113.3122884

 Broyden mixing:
  rms(total) = 0.70679E+01    rms(broyden)= 0.70659E+01
  rms(prec ) = 0.71421E+01
  weight for this iteration     100.00

 Free energy of the ion-electron system (eV)
  ---------------------------------------------------
  alpha Z        PSCENC =       106.58810953
  Ewald energy   TEWEN  =    182100.73797372
  -Hartree energ DENC   =   -192886.75798822
  -exchange      EXHF   =         0.00000000
  -V(xc)+E(xc)   XCENC  =      1427.30899353
  PAW double counting   =     11309.19404398   -11362.06715896
  entropy T*S    EENTRO =        -0.03001586
  eigenvalues    EBANDS =     -7221.36105664
  atomic energy  EATOM  =     15506.18949415
  Solvation  Ediel_sol  =         0.00000000
  ---------------------------------------------------
  free energy    TOTEN  =     -1020.19760477 eV

  energy without entropy =    -1020.16758891  energy(sigma->0) =    -1020.18259684


--------------------------------------------------------------------------------------------------------




--------------------------------------- Iteration      1(   6)  ---------------------------------------


    POTLOK:  cpu time    0.2801: real time    0.2817
    SETDIJ:  cpu time    0.0169: real time    0.0170
     EDDAV:  cpu time   52.0699: real time   52.3775
       DOS:  cpu time    0.0010: real time    0.0010
    CHARGE:  cpu time    1.4785: real time    1.4862
    MIXING:  cpu time    0.0125: real time    0.2747
    --------------------------------------------
      LOOP:  cpu time   53.8589: real time   54.4383

 eigenvalue-minimisations  :  7820
 total energy-change (2. order) : 0.3704193E+03  (-0.6291434E+02)
 number of electron     433.0000396 magnetization     109.7109765
 augmentation part       11.2818595 magnetization     105.0841335

 Broyden mixing:
  rms(total) = 0.41732E+01    rms(broyden)= 0.41726E+01
  rms(prec ) = 0.42272E+01
  weight for this iteration     100.00

 eigenvalues of (default mixing * dielectric matrix)
  average eigenvalue GAMMA=   0.9953
  0.9953

 Free energy of the ion-electron system (eV)
  ---------------------------------------------------
  alpha Z        PSCENC =       106.58810953
  Ewald energy   TEWEN  =    182100.73797372
  -Hartree energ DENC   =   -193611.01412887
  -exchange      EXHF   =         0.00000000
  -V(xc)+E(xc)   XCENC  =      1695.18363382
  PAW double counting   =     21035.39116200   -21096.92711079
  entropy T*S    EENTRO =        -0.05112029
  eigenvalues    EBANDS =     -6385.87627709
  atomic energy  EATOM  =     15506.18949415
  Solvation  Ediel_sol  =         0.00000000
  ---------------------------------------------------
  free energy    TOTEN  =      -649.77826382 eV

  energy without entropy =     -649.72714353  energy(sigma->0) =     -649.75270367


--------------------------------------------------------------------------------------------------------




--------------------------------------- Iteration      1(   7)  ---------------------------------------


    POTLOK:  cpu time    0.2786: real time    0.2800
    SETDIJ:  cpu time    0.0170: real time    0.0171
     EDDAV:  cpu time   53.6437: real time   53.9517
       DOS:  cpu time    0.0013: real time    0.0013
    CHARGE:  cpu time    1.4550: real time    1.4659
    MIXING:  cpu time    0.0079: real time    0.0081
    --------------------------------------------
      LOOP:  cpu time   55.4035: real time   55.7241

 eigenvalue-minimisations  :  8060
 total energy-change (2. order) :-0.5076560E+02  (-0.7355553E+01)
 number of electron     433.0000387 magnetization     101.0041175
 augmentation part       10.9831140 magnetization      97.0156198

 Broyden mixing:
  rms(total) = 0.29229E+01    rms(broyden)= 0.29226E+01
  rms(prec ) = 0.29413E+01
  weight for this iteration     100.00

 eigenvalues of (default mixing * dielectric matrix)
  average eigenvalue GAMMA=   1.2531
  0.8026  1.7036

 Free energy of the ion-electron system (eV)
  ---------------------------------------------------
  alpha Z        PSCENC =       106.58810953
  Ewald energy   TEWEN  =    182100.73797372
  -Hartree energ DENC   =   -194299.74775090
  -exchange      EXHF   =         0.00000000
  -V(xc)+E(xc)   XCENC  =      1660.34209188
  PAW double counting   =     31236.87541460   -31303.23963060
  entropy T*S    EENTRO =        -0.03237568
  eigenvalues    EBANDS =     -5708.25718557
  atomic energy  EATOM  =     15506.18949415
  Solvation  Ediel_sol  =         0.00000000
  ---------------------------------------------------
  free energy    TOTEN  =      -700.54385887 eV

  energy without entropy =     -700.51148318  energy(sigma->0) =     -700.52767102


--------------------------------------------------------------------------------------------------------




--------------------------------------- Iteration      1(   8)  ---------------------------------------


    POTLOK:  cpu time    0.2984: real time    0.3009
    SETDIJ:  cpu time    0.0168: real time    0.0169
     EDDAV:  cpu time   52.8408: real time   53.1380
       DOS:  cpu time    0.0028: real time    0.0028
    CHARGE:  cpu time    1.4623: real time    1.4700
    MIXING:  cpu time    0.0147: real time    0.0148
    --------------------------------------------
      LOOP:  cpu time   54.6358: real time   54.9433

 eigenvalue-minimisations  :  7910
 total energy-change (2. order) :-0.4116043E+02  (-0.3690539E+01)
 number of electron     433.0000380 magnetization      94.3029645
 augmentation part       10.6204730 magnetization      90.6497981

 Broyden mixing:
  rms(total) = 0.20374E+01    rms(broyden)= 0.20373E+01
  rms(prec ) = 0.20410E+01
  weight for this iteration     100.00

 eigenvalues of (default mixing * dielectric matrix)
  average eigenvalue GAMMA=   1.3541
  2.3677  1.0093  0.6852

 Free energy of the ion-electron system (eV)
  ---------------------------------------------------
  alpha Z        PSCENC =       106.58810953
  Ewald energy   TEWEN  =    182100.73797372
  -Hartree energ DENC   =   -194927.77727685
  -exchange      EXHF   =         0.00000000
  -V(xc)+E(xc)   XCENC  =      1649.52698644
  PAW double counting   =     43174.23260305   -43243.19868703
  entropy T*S    EENTRO =        -0.02436627
  eigenvalues    EBANDS =     -5107.97912724
  atomic energy  EATOM  =     15506.18949415
  Solvation  Ediel_sol  =         0.00000000
  ---------------------------------------------------
  free energy    TOTEN  =      -741.70429049 eV

  energy without entropy =     -741.67992422  energy(sigma->0) =     -741.69210735


--------------------------------------------------------------------------------------------------------




--------------------------------------- Iteration      1(   9)  ---------------------------------------


    POTLOK:  cpu time    0.2819: real time    0.2833
    SETDIJ:  cpu time    0.0165: real time    0.0166
     EDDAV:  cpu time   52.8332: real time   53.1349
       DOS:  cpu time    0.0012: real time    0.0012
    CHARGE:  cpu time    1.4439: real time    1.4622
    MIXING:  cpu time    0.0089: real time    0.0089
    --------------------------------------------
      LOOP:  cpu time   54.5855: real time   54.9072

 eigenvalue-minimisations  :  7910
 total energy-change (2. order) :-0.4549289E+02  (-0.1240337E+01)
 number of electron     433.0000377 magnetization      83.6853603
 augmentation part       10.5067118 magnetization      80.9951019

 Broyden mixing:
  rms(total) = 0.17003E+01    rms(broyden)= 0.17002E+01
  rms(prec ) = 0.17035E+01
  weight for this iteration     100.00

 eigenvalues of (default mixing * dielectric matrix)
  average eigenvalue GAMMA=   1.4162
  2.6220  1.5411  0.8457  0.6560

 Free energy of the ion-electron system (eV)
  ---------------------------------------------------
  alpha Z        PSCENC =       106.58810953
  Ewald energy   TEWEN  =    182100.73797372
  -Hartree energ DENC   =   -195092.04462922
  -exchange      EXHF   =         0.00000000
  -V(xc)+E(xc)   XCENC  =      1625.74792348
  PAW double counting   =     47076.35843224   -47144.59515988
  entropy T*S    EENTRO =        -0.03480660
  eigenvalues    EBANDS =     -4966.14451452
  atomic energy  EATOM  =     15506.18949415
  Solvation  Ediel_sol  =         0.00000000
  ---------------------------------------------------
  free energy    TOTEN  =      -787.19717709 eV

  energy without entropy =     -787.16237049  energy(sigma->0) =     -787.17977379


--------------------------------------------------------------------------------------------------------




--------------------------------------- Iteration      1(  10)  ---------------------------------------


    POTLOK:  cpu time    0.2782: real time    0.2796
    SETDIJ:  cpu time    0.0164: real time    0.0165
     EDDAV:  cpu time   50.4623: real time   50.7407
       DOS:  cpu time    0.0012: real time    0.0012
    CHARGE:  cpu time    1.4354: real time    1.4433
    MIXING:  cpu time    0.0067: real time    0.0068
    --------------------------------------------
      LOOP:  cpu time   52.2003: real time   52.4881

 eigenvalue-minimisations  :  7550
 total energy-change (2. order) :-0.7384907E+02  (-0.3422814E+01)
 number of electron     433.0000377 magnetization      71.1282457
 augmentation part       10.4520227 magnetization      69.6170429

 Broyden mixing:
  rms(total) = 0.13415E+01    rms(broyden)= 0.13415E+01
  rms(prec ) = 0.13431E+01
  weight for this iteration     100.00

 eigenvalues of (default mixing * dielectric matrix)
  average eigenvalue GAMMA=   1.5708
  3.1107  2.3281  0.9857  0.8096  0.6197

 Free energy of the ion-electron system (eV)
  ---------------------------------------------------
  alpha Z        PSCENC =       106.58810953
  Ewald energy   TEWEN  =    182100.73797372
  -Hartree energ DENC   =   -195174.60717631
  -exchange      EXHF   =         0.00000000
  -V(xc)+E(xc)   XCENC  =      1581.30103122
  PAW double counting   =     48573.89018431   -48639.79812919
  entropy T*S    EENTRO =        -0.01620707
  eigenvalues    EBANDS =     -4915.33153208
  atomic energy  EATOM  =     15506.18949415
  Solvation  Ediel_sol  =         0.00000000
  ---------------------------------------------------
  free energy    TOTEN  =      -861.04625171 eV

  energy without entropy =     -861.03004464  energy(sigma->0) =     -861.03814818


--------------------------------------------------------------------------------------------------------




--------------------------------------- Iteration      1(  11)  ---------------------------------------


    POTLOK:  cpu time    0.2813: real time    0.2828
    SETDIJ:  cpu time    0.0156: real time    0.0157
     EDDAV:  cpu time   50.7712: real time   51.0740
       DOS:  cpu time    0.0012: real time    0.0012
    CHARGE:  cpu time    1.4614: real time    1.4697
    MIXING:  cpu time    0.0084: real time    0.0085
    --------------------------------------------
      LOOP:  cpu time   52.5392: real time   52.8518

 eigenvalue-minimisations  :  7570
 total energy-change (2. order) :-0.6182406E+02  (-0.3723078E+01)
 number of electron     433.0000378 magnetization      57.1859505
 augmentation part       10.3909930 magnetization      55.8736325

 Broyden mixing:
  rms(total) = 0.10196E+01    rms(broyden)= 0.10194E+01
  rms(prec ) = 0.10208E+01
  weight for this iteration     100.00

 eigenvalues of (default mixing * dielectric matrix)
  average eigenvalue GAMMA=   1.7163
  4.0632  2.5531  1.3512  0.9860  0.7296  0.6149

 Free energy of the ion-electron system (eV)
  ---------------------------------------------------
  alpha Z        PSCENC =       106.58810953
  Ewald energy   TEWEN  =    182100.73797372
  -Hartree energ DENC   =   -195243.96513585
  -exchange      EXHF   =         0.00000000
  -V(xc)+E(xc)   XCENC  =      1543.02789871
  PAW double counting   =     48078.38339996   -48142.98401344
  entropy T*S    EENTRO =        -0.01350665
  eigenvalues    EBANDS =     -4870.83453027
  atomic energy  EATOM  =     15506.18949415
  Solvation  Ediel_sol  =         0.00000000
  ---------------------------------------------------
  free energy    TOTEN  =      -922.87031014 eV

  energy without entropy =     -922.85680348  energy(sigma->0) =     -922.86355681


--------------------------------------------------------------------------------------------------------




--------------------------------------- Iteration      1(  12)  ---------------------------------------


    POTLOK:  cpu time    0.2764: real time    0.2778
    SETDIJ:  cpu time    0.0171: real time    0.0171
     EDDAV:  cpu time   50.7203: real time   51.0053
       DOS:  cpu time    0.0014: real time    0.0014
    CHARGE:  cpu time    1.1851: real time    1.1922
    MIXING:  cpu time    0.0151: real time    0.0152
    --------------------------------------------
      LOOP:  cpu time   52.2154: real time   52.5091

 eigenvalue-minimisations  :  7550
 total energy-change (2. order) :-0.5272426E+02  (-0.4766103E+01)
 number of electron     433.0000378 magnetization      45.0785610
 augmentation part       10.2995046 magnetization      44.2096112

 Broyden mixing:
  rms(total) = 0.69836E+00    rms(broyden)= 0.69817E+00
  rms(prec ) = 0.70021E+00
  weight for this iteration     100.00

 eigenvalues of (default mixing * dielectric matrix)
  average eigenvalue GAMMA=   2.1506
  7.2856  2.6236  1.9640  1.0638  0.8199  0.6933  0.6040

 Free energy of the ion-electron system (eV)
  ---------------------------------------------------
  alpha Z        PSCENC =       106.58810953
  Ewald energy   TEWEN  =    182100.73797372
  -Hartree energ DENC   =   -195275.44176266
  -exchange      EXHF   =         0.00000000
  -V(xc)+E(xc)   XCENC  =      1508.84301836
  PAW double counting   =     45711.90991913   -45776.67473818
  entropy T*S    EENTRO =        -0.02108740
  eigenvalues    EBANDS =     -4857.72549248
  atomic energy  EATOM  =     15506.18949415
  Solvation  Ediel_sol  =         0.00000000
  ---------------------------------------------------
  free energy    TOTEN  =      -975.59456583 eV

  energy without entropy =     -975.57347842  energy(sigma->0) =     -975.58402213


--------------------------------------------------------------------------------------------------------




--------------------------------------- Iteration      1(  13)  ---------------------------------------


    POTLOK:  cpu time    0.2858: real time    0.2873
    SETDIJ:  cpu time    0.0163: real time    0.0163
     EDDAV:  cpu time   52.1730: real time   52.4827
       DOS:  cpu time    0.0013: real time    0.0013
    CHARGE:  cpu time    1.4399: real time    1.4486
    MIXING:  cpu time    0.0137: real time    0.1496
    --------------------------------------------
      LOOP:  cpu time   53.9299: real time   54.3857

 eigenvalue-minimisations  :  7810
 total energy-change (2. order) :-0.1753337E+02  (-0.1631814E+01)
 number of electron     433.0000378 magnetization      39.0781784
 augmentation part       10.2589279 magnetization      38.7541468

 Broyden mixing:
  rms(total) = 0.51755E+00    rms(broyden)= 0.51743E+00
  rms(prec ) = 0.52003E+00
  weight for this iteration     100.00

 eigenvalues of (default mixing * dielectric matrix)
  average eigenvalue GAMMA=   2.2652
  9.1193  2.4027  2.4027  1.0687  1.0687  0.7683  0.6834  0.6079

 Free energy of the ion-electron system (eV)
  ---------------------------------------------------
  alpha Z        PSCENC =       106.58810953
  Ewald energy   TEWEN  =    182100.73797372
  -Hartree energ DENC   =   -195263.32424331
  -exchange      EXHF   =         0.00000000
  -V(xc)+E(xc)   XCENC  =      1495.84927028
  PAW double counting   =     44227.65204699   -44292.71062083
  entropy T*S    EENTRO =        -0.02923661
  eigenvalues    EBANDS =     -4874.08072485
  atomic energy  EATOM  =     15506.18949415
  Solvation  Ediel_sol  =         0.00000000
  ---------------------------------------------------
  free energy    TOTEN  =      -993.12793093 eV

  energy without entropy =     -993.09869432  energy(sigma->0) =     -993.11331263


--------------------------------------------------------------------------------------------------------




--------------------------------------- Iteration      1(  14)  ---------------------------------------


    POTLOK:  cpu time    0.2812: real time    0.2827
    SETDIJ:  cpu time    0.0166: real time    0.0167
     EDDAV:  cpu time   51.4070: real time   51.7330
       DOS:  cpu time    0.0011: real time    0.0011
    CHARGE:  cpu time    1.3850: real time    1.3931
    MIXING:  cpu time    0.0108: real time    0.0109
    --------------------------------------------
      LOOP:  cpu time   53.1018: real time   53.4375

 eigenvalue-minimisations  :  7700
 total energy-change (2. order) :-0.5223757E+01  (-0.1071439E+00)
 number of electron     433.0000378 magnetization      32.8115090
 augmentation part       10.2420713 magnetization      32.6545047

 Broyden mixing:
  rms(total) = 0.44587E+00    rms(broyden)= 0.44585E+00
  rms(prec ) = 0.44770E+00
  weight for this iteration     100.00

 eigenvalues of (default mixing * dielectric matrix)
  average eigenvalue GAMMA=   2.2800
 10.0759  2.5503  2.5503  1.3501  1.0758  0.8758  0.7666  0.6134  0.6617

 Free energy of the ion-electron system (eV)
  ---------------------------------------------------
  alpha Z        PSCENC =       106.58810953
  Ewald energy   TEWEN  =    182100.73797372
  -Hartree energ DENC   =   -195235.71219905
  -exchange      EXHF   =         0.00000000
  -V(xc)+E(xc)   XCENC  =      1490.73069851
  PAW double counting   =     44433.84732990   -44499.14248479
  entropy T*S    EENTRO =        -0.03492170
  eigenvalues    EBANDS =     -4901.55568845
  atomic energy  EATOM  =     15506.18949415
  Solvation  Ediel_sol  =         0.00000000
  ---------------------------------------------------
  free energy    TOTEN  =      -998.35168818 eV

  energy without entropy =     -998.31676648  energy(sigma->0) =     -998.33422733


--------------------------------------------------------------------------------------------------------




--------------------------------------- Iteration      1(  15)  ---------------------------------------


    POTLOK:  cpu time    0.2731: real time    0.2745
    SETDIJ:  cpu time    0.0168: real time    0.0168
     EDDAV:  cpu time   49.7185: real time   49.9997
       DOS:  cpu time    0.0013: real time    0.0013
    CHARGE:  cpu time    1.4606: real time    1.4688
    MIXING:  cpu time    0.0105: real time    0.0106
    --------------------------------------------
      LOOP:  cpu time   51.4808: real time   51.7718

 eigenvalue-minimisations  :  7410
 total energy-change (2. order) :-0.3616671E+01  (-0.4616384E-01)
 number of electron     433.0000378 magnetization      24.2384708
 augmentation part       10.2446209 magnetization      24.1162310

 Broyden mixing:
  rms(total) = 0.37890E+00    rms(broyden)= 0.37890E+00
  rms(prec ) = 0.37982E+00
  weight for this iteration     100.00

 eigenvalues of (default mixing * dielectric matrix)
  average eigenvalue GAMMA=   2.3312
 10.6780  3.0108  2.5878  2.0240  1.1001  1.1001  0.7743  0.7743  0.6160  0.6465

 Free energy of the ion-electron system (eV)
  ---------------------------------------------------
  alpha Z        PSCENC =       106.58810953
  Ewald energy   TEWEN  =    182100.73797372
  -Hartree energ DENC   =   -195157.89575899
  -exchange      EXHF   =         0.00000000
  -V(xc)+E(xc)   XCENC  =      1486.01438021
  PAW double counting   =     44371.78222587   -44437.15069000
  entropy T*S    EENTRO =        -0.03538835
  eigenvalues    EBANDS =     -4978.19870496
  atomic energy  EATOM  =     15506.18949415
  Solvation  Ediel_sol  =         0.00000000
  ---------------------------------------------------
  free energy    TOTEN  =     -1001.96835882 eV

  energy without entropy =    -1001.93297047  energy(sigma->0) =    -1001.95066464


--------------------------------------------------------------------------------------------------------




--------------------------------------- Iteration      1(  16)  ---------------------------------------


    POTLOK:  cpu time    0.2844: real time    0.2858
    SETDIJ:  cpu time    0.0156: real time    0.0156
     EDDAV:  cpu time   49.7850: real time   50.0839
       DOS:  cpu time    0.0014: real time    0.0014
    CHARGE:  cpu time    1.4524: real time    1.4606
    MIXING:  cpu time    0.0110: real time    0.0237
    --------------------------------------------
      LOOP:  cpu time   51.5497: real time   51.8710

 eigenvalue-minimisations  :  7370
 total energy-change (2. order) :-0.3466484E+01  (-0.6220545E-01)
 number of electron     433.0000378 magnetization      14.8014002
 augmentation part       10.2528296 magnetization      14.7004712

 Broyden mixing:
  rms(total) = 0.29171E+00    rms(broyden)= 0.29171E+00
  rms(prec ) = 0.29252E+00
  weight for this iteration     100.00

 eigenvalues of (default mixing * dielectric matrix)
  average eigenvalue GAMMA=   2.4180
 11.3321  4.3995  2.4185  2.4185  1.1222  1.1222  1.0026  0.7605  0.7605  0.6149
  0.6460

 Free energy of the ion-electron system (eV)
  ---------------------------------------------------
  alpha Z        PSCENC =       106.58810953
  Ewald energy   TEWEN  =    182100.73797372
  -Hartree energ DENC   =   -195048.43018374
  -exchange      EXHF   =         0.00000000
  -V(xc)+E(xc)   XCENC  =      1481.34503102
  PAW double counting   =     44427.12190112   -44492.38957105
  entropy T*S    EENTRO =        -0.03382385
  eigenvalues    EBANDS =     -5086.56377398
  atomic energy  EATOM  =     15506.18949415
  Solvation  Ediel_sol  =         0.00000000
  ---------------------------------------------------
  free energy    TOTEN  =     -1005.43484308 eV

  energy without entropy =    -1005.40101923  energy(sigma->0) =    -1005.41793115


--------------------------------------------------------------------------------------------------------




--------------------------------------- Iteration      1(  17)  ---------------------------------------


    POTLOK:  cpu time    0.2863: real time    0.2877
    SETDIJ:  cpu time    0.0154: real time    0.0155
     EDDAV:  cpu time   51.1480: real time   51.4371
       DOS:  cpu time    0.0013: real time    0.0013
    CHARGE:  cpu time    1.4483: real time    1.4562
    MIXING:  cpu time    0.0155: real time    0.0156
    --------------------------------------------
      LOOP:  cpu time   52.9148: real time   53.2134

 eigenvalue-minimisations  :  7660
 total energy-change (2. order) :-0.2536215E+01  (-0.3519103E-01)
 number of electron     433.0000378 magnetization       6.6197244
 augmentation part       10.2556689 magnetization       6.5418486

 Broyden mixing:
  rms(total) = 0.19978E+00    rms(broyden)= 0.19977E+00
  rms(prec ) = 0.20126E+00
  weight for this iteration     100.00

 eigenvalues of (default mixing * dielectric matrix)
  average eigenvalue GAMMA=   2.6600
 12.8244  6.5739  2.5437  2.5437  1.6959  1.0828  1.0828  0.8092  0.7977  0.7107
  0.6156  0.6399

 Free energy of the ion-electron system (eV)
  ---------------------------------------------------
  alpha Z        PSCENC =       106.58810953
  Ewald energy   TEWEN  =    182100.73797372
  -Hartree energ DENC   =   -194967.72599329
  -exchange      EXHF   =         0.00000000
  -V(xc)+E(xc)   XCENC  =      1478.47047666
  PAW double counting   =     44715.60794713   -44780.81149182
  entropy T*S    EENTRO =        -0.03487169
  eigenvalues    EBANDS =     -5166.99270262
  atomic energy  EATOM  =     15506.18949415
  Solvation  Ediel_sol  =         0.00000000
  ---------------------------------------------------
  free energy    TOTEN  =     -1007.97105823 eV

  energy without entropy =    -1007.93618654  energy(sigma->0) =    -1007.95362239


--------------------------------------------------------------------------------------------------------




--------------------------------------- Iteration      1(  18)  ---------------------------------------


    POTLOK:  cpu time    0.2819: real time    0.2834
    SETDIJ:  cpu time    0.0162: real time    0.0162
     EDDAV:  cpu time   50.2398: real time   50.5241
       DOS:  cpu time    0.0012: real time    0.0012
    CHARGE:  cpu time    1.1557: real time    1.1617
    MIXING:  cpu time    0.0135: real time    0.0136
    --------------------------------------------
      LOOP:  cpu time   51.7083: real time   52.0002

 eigenvalue-minimisations  :  7470
 total energy-change (2. order) :-0.3138651E+01  (-0.2363533E-01)
 number of electron     433.0000378 magnetization       2.8735400
 augmentation part       10.2535242 magnetization       2.8419668

 Broyden mixing:
  rms(total) = 0.11548E+00    rms(broyden)= 0.11548E+00
  rms(prec ) = 0.11786E+00
  weight for this iteration     100.00

 eigenvalues of (default mixing * dielectric matrix)
  average eigenvalue GAMMA=   2.9694
 16.1007  8.3382  2.6806  2.6806  2.0852  1.1076  1.1076  0.9906  0.7856  0.7856
  0.6964  0.6216  0.6216

 Free energy of the ion-electron system (eV)
  ---------------------------------------------------
  alpha Z        PSCENC =       106.58810953
  Ewald energy   TEWEN  =    182100.73797372
  -Hartree energ DENC   =   -194930.13826758
  -exchange      EXHF   =         0.00000000
  -V(xc)+E(xc)   XCENC  =      1475.71683307
  PAW double counting   =     44807.99755514   -44873.24366518
  entropy T*S    EENTRO =        -0.03545806
  eigenvalues    EBANDS =     -5204.92228371
  atomic energy  EATOM  =     15506.18949415
  Solvation  Ediel_sol  =         0.00000000
  ---------------------------------------------------
  free energy    TOTEN  =     -1011.10970892 eV

  energy without entropy =    -1011.07425086  energy(sigma->0) =    -1011.09197989


--------------------------------------------------------------------------------------------------------




--------------------------------------- Iteration      1(  19)  ---------------------------------------


    POTLOK:  cpu time    0.2919: real time    0.2934
    SETDIJ:  cpu time    0.0152: real time    0.0152
     EDDAV:  cpu time   50.3501: real time   50.6391
       DOS:  cpu time    0.0011: real time    0.0011
    CHARGE:  cpu time    1.4530: real time    1.4612
    MIXING:  cpu time    0.0146: real time    0.0147
    --------------------------------------------
      LOOP:  cpu time   52.1258: real time   52.4247

 eigenvalue-minimisations  :  7530
 total energy-change (2. order) :-0.2622747E+01  (-0.7029959E-02)
 number of electron     433.0000378 magnetization       1.2546186
 augmentation part       10.2515049 magnetization       1.2484393

 Broyden mixing:
  rms(total) = 0.69512E-01    rms(broyden)= 0.69504E-01
  rms(prec ) = 0.71871E-01
  weight for this iteration     100.00

 eigenvalues of (default mixing * dielectric matrix)
  average eigenvalue GAMMA=   3.1447
 19.2200  9.0056  3.0185  2.5671  2.2980  1.4361  1.0436  1.0436  0.9571  0.7584
  0.7584  0.6812  0.6190  0.6190

 Free energy of the ion-electron system (eV)
  ---------------------------------------------------
  alpha Z        PSCENC =       106.58810953
  Ewald energy   TEWEN  =    182100.73797372
  -Hartree energ DENC   =   -194932.20909168
  -exchange      EXHF   =         0.00000000
  -V(xc)+E(xc)   XCENC  =      1473.46262224
  PAW double counting   =     44727.65764589   -44792.93835610
  entropy T*S    EENTRO =        -0.03508182
  eigenvalues    EBANDS =     -5203.18577144
  atomic energy  EATOM  =     15506.18949415
  Solvation  Ediel_sol  =         0.00000000
  ---------------------------------------------------
  free energy    TOTEN  =     -1013.73245551 eV

  energy without entropy =    -1013.69737368  energy(sigma->0) =    -1013.71491460


--------------------------------------------------------------------------------------------------------




--------------------------------------- Iteration      1(  20)  ---------------------------------------


    POTLOK:  cpu time    0.2952: real time    0.2969
    SETDIJ:  cpu time    0.0155: real time    0.0156
     EDDAV:  cpu time   50.5345: real time   50.8158
       DOS:  cpu time    0.0015: real time    0.0015
    CHARGE:  cpu time    1.4326: real time    1.4415
    MIXING:  cpu time    0.0146: real time    0.0147
    --------------------------------------------
      LOOP:  cpu time   52.2940: real time   52.5861

 eigenvalue-minimisations  :  7580
 total energy-change (2. order) :-0.8166646E+00  (-0.2521284E-02)
 number of electron     433.0000378 magnetization       0.6583648
 augmentation part       10.2500305 magnetization       0.6643880

 Broyden mixing:
  rms(total) = 0.43696E-01    rms(broyden)= 0.43691E-01
  rms(prec ) = 0.45491E-01
  weight for this iteration     100.00

 eigenvalues of (default mixing * dielectric matrix)
  average eigenvalue GAMMA=   3.2010
 21.0667  9.3488  3.3639  2.4803  2.4803  1.8372  1.0986  1.0986  0.9831  0.8417
  0.7842  0.7384  0.6581  0.6132  0.6225

 Free energy of the ion-electron system (eV)
  ---------------------------------------------------
[...]
   -.482E+03 -.957E+01 0.291E+03   0.482E+03 0.965E+01 -.291E+03   -.292E+00 -.658E-01 -.611E-01   0.706E-04 -.228E-04 0.490E-04
   -.482E+03 -.955E+01 0.292E+03   0.482E+03 0.962E+01 -.292E+03   -.292E+00 -.733E-01 -.492E-01   0.711E-04 -.151E-04 0.494E-04
   -.635E+03 0.350E+02 0.245E+03   0.636E+03 -.354E+02 -.245E+03   -.831E+00 0.313E+00 -.563E-01   0.140E-03 -.137E-04 0.101E-03
   -.635E+03 0.350E+02 0.246E+03   0.636E+03 -.353E+02 -.246E+03   -.826E+00 0.310E+00 -.490E-01   0.144E-03 -.180E-04 0.101E-03
   0.154E+01 -.113E-01 0.364E+03   -.140E+01 0.475E-01 -.364E+03   -.135E+00 -.273E-01 -.284E-01   -.578E-04 -.343E-04 -.241E-05
   0.171E+01 0.358E-01 0.362E+03   -.156E+01 -.355E-02 -.362E+03   -.158E+00 -.259E-01 -.443E-01   -.645E-04 -.684E-05 -.137E-05
   -.257E+03 0.111E+01 0.344E+03   0.257E+03 -.108E+01 -.344E+03   -.577E-01 -.230E-01 -.391E-01   -.885E-04 -.347E-05 0.147E-04
   -.257E+03 0.923E+00 0.344E+03   0.257E+03 -.888E+00 -.344E+03   -.572E-01 -.165E-01 -.377E-01   -.100E-03 -.120E-04 0.160E-04
   -.354E+03 0.931E+00 0.324E+03   0.354E+03 -.983E+00 -.324E+03   -.198E+00 0.560E-01 -.399E-01   -.382E-04 0.491E-05 0.236E-04
   -.354E+03 0.900E+00 0.324E+03   0.355E+03 -.950E+00 -.324E+03   -.194E+00 0.566E-01 -.406E-01   -.449E-04 0.198E-05 0.246E-04
   -.801E+02 -.220E-01 -.361E+03   0.802E+02 0.284E-01 0.361E+03   -.102E+00 -.123E-01 0.708E-01   -.422E-04 -.376E-05 -.299E-04
   -.801E+02 -.136E+00 -.361E+03   0.802E+02 0.146E+00 0.361E+03   -.111E+00 -.515E-02 0.526E-01   -.451E-04 -.502E-05 -.349E-04
   -.166E+03 -.948E+00 -.357E+03   0.166E+03 0.936E+00 0.357E+03   -.829E-01 0.135E-01 0.274E-01   -.915E-04 0.265E-06 -.244E-04
   -.166E+03 -.776E+00 -.356E+03   0.166E+03 0.776E+00 0.356E+03   -.817E-01 0.155E-01 0.331E-01   -.912E-04 0.103E-04 -.253E-04
   -.482E+03 -.980E+01 -.292E+03   0.482E+03 0.986E+01 0.292E+03   -.285E+00 -.577E-01 0.489E-01   0.537E-04 0.375E-05 -.667E-04
   -.482E+03 -.976E+01 -.291E+03   0.482E+03 0.984E+01 0.291E+03   -.280E+00 -.575E-01 0.656E-01   0.506E-04 0.649E-05 -.658E-04
   -.635E+03 0.356E+02 -.245E+03   0.636E+03 -.360E+02 0.245E+03   -.841E+00 0.315E+00 0.278E-01   0.960E-04 -.155E-04 -.117E-03
   -.635E+03 0.356E+02 -.246E+03   0.636E+03 -.359E+02 0.246E+03   -.846E+00 0.316E+00 0.181E-01   0.970E-04 -.172E-04 -.117E-03
   0.135E+01 0.106E+00 -.363E+03   -.120E+01 -.884E-01 0.363E+03   -.135E+00 -.253E-01 0.393E-01   0.663E-04 0.134E-04 -.457E-04
   0.145E+01 0.284E+00 -.363E+03   -.132E+01 -.259E+00 0.363E+03   -.133E+00 -.113E-01 0.241E-01   0.620E-04 0.258E-04 -.448E-04
   -.257E+03 0.108E+01 -.345E+03   0.257E+03 -.105E+01 0.345E+03   -.637E-01 -.120E-01 0.173E-01   -.149E-03 0.122E-04 -.243E-04
   -.257E+03 0.103E+01 -.344E+03   0.257E+03 -.101E+01 0.344E+03   -.663E-01 -.824E-02 0.245E-01   -.153E-03 0.127E-04 -.266E-04
   -.355E+03 0.946E+00 -.323E+03   0.355E+03 -.987E+00 0.323E+03   -.197E+00 0.373E-01 0.429E-01   -.860E-04 -.359E-04 -.368E-04
   -.355E+03 0.101E+01 -.324E+03   0.355E+03 -.105E+01 0.324E+03   -.194E+00 0.346E-01 0.390E-01   -.865E-04 -.317E-04 -.376E-04
   -.635E+03 -.355E+02 0.245E+03   0.636E+03 0.358E+02 -.245E+03   -.834E+00 -.318E+00 -.206E-01   0.137E-03 0.157E-04 0.101E-03
   -.635E+03 -.355E+02 0.246E+03   0.636E+03 0.358E+02 -.246E+03   -.830E+00 -.314E+00 -.136E-01   0.142E-03 0.212E-04 0.102E-03
   0.140E+01 0.136E+00 0.364E+03   -.125E+01 -.164E+00 -.364E+03   -.137E+00 0.193E-01 -.165E-01   -.658E-04 0.261E-04 -.160E-05
   0.159E+01 -.856E-01 0.362E+03   -.143E+01 0.608E-01 -.362E+03   -.156E+00 0.230E-01 -.278E-01   -.771E-04 0.237E-05 -.147E-05
   -.800E+02 -.118E+00 0.363E+03   0.801E+02 0.114E+00 -.363E+03   -.106E+00 0.104E-01 -.282E-01   -.113E-03 -.280E-04 0.865E-05
   -.801E+02 0.456E-01 0.362E+03   0.802E+02 -.519E-01 -.362E+03   -.116E+00 0.434E-02 -.342E-01   -.121E-03 0.107E-04 0.102E-04
   -.355E+03 -.106E+01 0.323E+03   0.355E+03 0.111E+01 -.323E+03   -.196E+00 -.386E-01 -.356E-01   -.414E-04 0.103E-04 0.236E-04
   -.355E+03 -.103E+01 0.324E+03   0.355E+03 0.107E+01 -.324E+03   -.193E+00 -.417E-01 -.365E-01   -.454E-04 0.573E-05 0.249E-04
   -.482E+03 0.983E+01 0.292E+03   0.482E+03 -.990E+01 -.292E+03   -.283E+00 0.517E-01 -.572E-01   0.790E-04 0.167E-04 0.498E-04
   -.482E+03 0.984E+01 0.292E+03   0.482E+03 -.990E+01 -.292E+03   -.283E+00 0.608E-01 -.461E-01   0.739E-04 0.754E-05 0.494E-04
   -.165E+03 0.923E+00 0.357E+03   0.166E+03 -.909E+00 -.357E+03   -.882E-01 -.119E-01 -.231E-01   -.876E-04 0.117E-04 0.120E-04
   -.165E+03 0.816E+00 0.355E+03   0.166E+03 -.815E+00 -.355E+03   -.899E-01 -.139E-01 -.418E-01   -.107E-03 -.954E-05 0.143E-04
   -.257E+03 -.102E+01 0.344E+03   0.257E+03 0.991E+00 -.344E+03   -.628E-01 0.124E-01 -.287E-01   -.983E-04 -.140E-05 0.144E-04
   -.257E+03 -.867E+00 0.344E+03   0.257E+03 0.839E+00 -.344E+03   -.626E-01 0.797E-02 -.312E-01   -.110E-03 0.278E-05 0.158E-04
   -.194E+03 -.188E+02 0.505E+02   0.199E+03 0.215E+02 -.505E+02   -.509E+01 -.268E+01 -.152E-02   0.206E-04 0.151E-04 0.410E-04
   -.194E+03 -.188E+02 0.502E+02   0.199E+03 0.215E+02 -.502E+02   -.508E+01 -.267E+01 -.292E-01   0.219E-04 0.163E-04 0.411E-04
   -.194E+03 -.189E+02 -.503E+02   0.199E+03 0.216E+02 0.502E+02   -.509E+01 -.268E+01 0.363E-01   0.139E-04 0.120E-04 -.445E-04
   -.194E+03 -.189E+02 -.504E+02   0.199E+03 0.215E+02 0.504E+02   -.509E+01 -.268E+01 0.269E-01   0.144E-04 0.124E-04 -.443E-04
   -.194E+03 0.189E+02 0.504E+02   0.199E+03 -.216E+02 -.504E+02   -.509E+01 0.268E+01 -.187E-01   0.210E-04 -.152E-04 0.409E-04
   -.194E+03 0.189E+02 0.502E+02   0.199E+03 -.215E+02 -.502E+02   -.509E+01 0.268E+01 -.443E-01   0.226E-04 -.164E-04 0.409E-04
   -.194E+03 0.188E+02 -.503E+02   0.199E+03 -.215E+02 0.502E+02   -.509E+01 0.268E+01 0.235E-01   0.137E-04 -.123E-04 -.445E-04
   -.194E+03 0.188E+02 -.504E+02   0.199E+03 -.215E+02 0.504E+02   -.509E+01 0.268E+01 0.644E-02   0.135E-04 -.120E-04 -.445E-04
   0.192E+03 0.188E+02 -.518E+02   -.197E+03 -.215E+02 0.519E+02   0.510E+01 0.269E+01 -.555E-01   0.183E-05 -.920E-05 -.515E-04
   0.192E+03 0.188E+02 -.500E+02   -.197E+03 -.215E+02 0.501E+02   0.509E+01 0.262E+01 -.637E-01   -.151E-05 -.150E-04 -.511E-04
   0.190E+03 0.193E+02 0.574E+02   -.195E+03 -.220E+02 -.578E+02   0.510E+01 0.272E+01 0.309E+00   0.183E-04 -.105E-04 0.419E-04
   0.193E+03 0.189E+02 0.446E+02   -.198E+03 -.215E+02 -.443E+02   0.507E+01 0.264E+01 -.249E+00   0.299E-04 -.208E-05 0.303E-04
   0.190E+03 -.188E+02 -.583E+02   -.195E+03 0.215E+02 0.587E+02   0.508E+01 -.265E+01 -.433E+00   0.385E-05 0.104E-04 -.557E-04
   0.193E+03 -.189E+02 -.452E+02   -.198E+03 0.215E+02 0.449E+02   0.508E+01 -.266E+01 0.252E+00   -.137E-05 0.131E-04 -.484E-04
   0.193E+03 -.190E+02 0.445E+02   -.198E+03 0.216E+02 -.442E+02   0.507E+01 -.263E+01 -.230E+00   0.294E-04 0.356E-05 0.309E-04
   0.190E+03 -.192E+02 0.573E+02   -.195E+03 0.219E+02 -.577E+02   0.510E+01 -.271E+01 0.308E+00   0.158E-04 0.106E-04 0.414E-04
   0.129E+03 -.867E-01 -.333E+01   -.129E+03 0.645E-01 0.317E+01   0.899E-01 0.180E-01 0.195E+00   -.528E-05 -.490E-06 -.211E-04
 -----------------------------------------------------------------------------------------------
   0.134E+02 -.673E-01 -.221E+01   -.261E-11 0.154E-12 -.235E-11   -.135E+02 0.623E-01 0.220E+01   0.197E-03 -.418E-05 -.296E-02


 POSITION                                       TOTAL-FORCE (eV/Angst)
 -----------------------------------------------------------------------------------
     17.38018      0.03517     12.10714        -0.000007      0.002522      0.002516
     17.38167      4.30858     12.10846        -0.010474     -0.004265      0.002136
     16.14792      2.17151     12.08266        -0.001164     -0.015068     -0.001762
     16.14539      6.44457     12.08773         0.006913     -0.002457      0.000650
     12.43733      0.02438     12.02922        -0.003994     -0.018522     -0.005612
     12.43868      4.31288     11.97065        -0.020674      0.005136      0.001174
     11.22906      2.19402     11.89064         0.004518     -0.007612     -0.002160
     11.22984      6.47211     12.07533        -0.005946      0.010056      0.003881
     14.91472      0.03393     12.06083        -0.009793      0.007402      0.000618
     14.91824      4.31100     12.05225         0.009564      0.002517      0.007597
     13.68089      2.16800     11.99644         0.005010     -0.010466      0.007709
     13.67570      6.44492     12.04794        -0.021682     -0.011272     -0.002640
     17.38181      8.51162     15.69231        -0.012805     -0.011917     -0.005571
     17.38160      4.23788     15.70207         0.004331     -0.001507     -0.012399
     16.14948      2.10133     15.72869         0.001917      0.005115     -0.004375
     16.14762      6.37534     15.71242        -0.001883      0.023170      0.004921
     12.44199      8.51187     15.78109        -0.009537     -0.000714      0.007250
     12.44151      4.24662     15.83549        -0.006979      0.026453     -0.002394
     11.23053      2.06942     15.89856         0.005875     -0.000376      0.001899
     11.23364      6.34821     15.74100        -0.001853      0.004305      0.006922
     14.91715      8.50990     15.73674        -0.011600     -0.012663      0.003871
     14.91780      4.23835     15.76746        -0.015904      0.006566     -0.004857
     13.68262      2.09978     15.82164         0.007951     -0.006066     -0.013694
     13.67760      6.37681     15.75377        -0.005004      0.012322      0.003626
     17.38154      1.45963     12.10786        -0.012611      0.004590      0.004686
     17.38007      5.73296     12.10718        -0.000825      0.002965      0.001594
     16.14787      3.59636     12.08259        -0.005261      0.018332     -0.000456
     16.14537      7.87009     12.08723         0.003210      0.007273      0.002089
     12.43883      1.45440     11.96790        -0.010856      0.000850      0.005869
     12.43750      5.74274     12.03035         0.015062      0.013237      0.000228
     11.22858      3.57279     11.89324         0.004701      0.013741     -0.009709
     11.22914      7.84186     12.07343         0.004746      0.000931      0.001613
     14.91831      1.45705     12.05113         0.002468     -0.004012      0.008166
     14.91482      5.73391     12.06073        -0.012337     -0.009021      0.000586
     13.68060      3.59944     11.99735         0.010272      0.013568      0.002698
     13.67543      7.86900     12.04750        -0.013432      0.018127     -0.000056
     11.23440      0.69872     15.83736        -0.006229     -0.004971     -0.001606
     11.23015      4.98024     15.79354         0.003962     -0.020197     -0.010747
     17.38214      2.81323     15.70235         0.007693      0.001102     -0.004882
     17.38097      7.08689     15.69216         0.000449     -0.002204      0.003951
     13.67848      0.67250     15.78206         0.014907     -0.015509     -0.004176
     13.67957      4.95216     15.78602         0.000931     -0.016865     -0.000424
     12.44376      2.81026     15.88944        -0.018904     -0.007912      0.003813
     12.44130      7.08212     15.75214         0.000918     -0.008502     -0.000137
     16.14838      0.67619     15.71683         0.002186     -0.007674      0.018301
     16.14807      4.95021     15.72292         0.014463     -0.014882      0.017960
     14.91945      2.81480     15.77651         0.004364     -0.008788     -0.023295
     14.91622      7.08746     15.73191        -0.010582      0.004061     -0.015297
     19.84886      8.51099     15.67110         0.003075     -0.016311     -0.012198
     19.84896      4.23724     15.67266        -0.008608     -0.003076     -0.000325
     21.08117      6.37411     15.66849         0.005768     -0.007482     -0.013917
     21.08165      2.10064     15.66468         0.004136     -0.015105      0.006376
     24.78371      8.51246     15.66929         0.015755     -0.012246     -0.000490
     24.78393      4.23904     15.66716         0.003824     -0.012326      0.003541
     25.99020      6.34248     15.66756        -0.008192      0.026715     -0.004394
     25.98989      2.06951     15.66801         0.002236     -0.007578     -0.006847
     18.61468      6.37400     15.68121        -0.002275     -0.001415     -0.022024
     18.61555      2.10017     15.68112        -0.005444      0.004142     -0.005782
     22.31322      8.50690     15.66480         0.008275     -0.015611      0.008815
     22.31348      4.23325     15.66447        -0.002473     -0.004106      0.005056
     23.55186      6.37245     15.66707        -0.006043      0.000107      0.015631
     23.55195      2.09930     15.66636        -0.004302     -0.017883      0.003608
     19.84743      0.03597     12.13046        -0.010107      0.000218      0.001024
     19.84802      4.30906     12.13398        -0.004719      0.013070     -0.003399
     21.08027      6.44584     12.13455         0.008139      0.003592      0.007943
     21.08085      2.17245     12.14032         0.002967      0.010995     -0.007355
     24.78308      0.03368     12.13686         0.008061      0.019630     -0.008153
     24.78305      4.30758     12.13467         0.011223      0.007280      0.001064
     25.98928      6.47698     12.13832        -0.013021      0.001834     -0.003589
     25.98913      2.20342     12.13573        -0.005897     -0.006557      0.007353
     18.61297      6.44548     12.12064         0.008653      0.009055      0.009571
     18.61445      2.17240     12.12548        -0.004480      0.006254      0.000691
     22.31215      0.03956     12.13813        -0.000500      0.006936      0.001098
     22.31230      4.31295     12.13949         0.002625      0.018585      0.001116
     23.55105      6.44759     12.13675        -0.014240      0.003039     -0.004257
     23.55098      2.17406     12.13623        -0.001252      0.006771     -0.001592
     19.84874      7.08611     15.67073        -0.004850     -0.006138      0.026540
     19.84948      2.81238     15.67022        -0.011901      0.004661      0.014593
     21.08143      4.94741     15.66843         0.003949      0.001786     -0.007045
     21.08144      0.67386     15.66606         0.001232      0.016105      0.001015
     24.78346      7.07795     15.66955         0.007237      0.014142     -0.004679
     24.78341      2.80469     15.66774         0.008831      0.018524      0.011190
     25.99086      4.97383     15.66869        -0.002358     -0.020691      0.001726
     25.99092      0.70040     15.66996        -0.012642     -0.009932     -0.004127
     18.61468      4.95024     15.68373         0.009133     -0.007831     -0.002867
     18.61516      0.67664     15.68012        -0.001378      0.012908     -0.002680
     22.31320      7.08617     15.66735         0.013611      0.010991     -0.010922
     22.31358      2.81264     15.66484         0.004855      0.018534     -0.005700
     23.55224      4.94597     15.66595        -0.005601     -0.004299      0.006991
     23.55202      0.67262     15.66700         0.000422     -0.003232      0.002516
     25.98989      7.84631     12.13671        -0.003630      0.002717     -0.002060
     25.98980      3.57282     12.13392         0.000884      0.013529      0.007430
     18.61295      7.87040     12.11984         0.011462     -0.008111      0.009388
     18.61438      3.59636     12.12470        -0.001034     -0.001579      0.004164
     19.84753      5.73373     12.13049        -0.014211      0.006983      0.000913
     19.84824      1.46061     12.13402        -0.006992     -0.001781     -0.003146
     23.55128      7.87393     12.13722        -0.011120      0.005297     -0.005098
     23.55120      3.60068     12.13639        -0.000232     -0.003845     -0.002414
     24.78272      5.74228     12.13597         0.011421     -0.022230     -0.005870
     24.78272      1.46839     12.13440         0.008158     -0.008981      0.002064
     21.08034      7.87266     12.13424         0.009590      0.001611      0.005567
     21.08085      3.59923     12.13994         0.005204     -0.012616     -0.010038
     22.31212      5.73414     12.13718         0.011185     -0.013471      0.000010
     22.31238      1.46071     12.13901         0.012406     -0.019213     -0.003251
     26.94705      8.36409     12.13750         0.003129     -0.000281      0.006013
     26.94731      4.09074     12.13949        -0.007563     -0.007056     -0.002033
     26.94685      6.86125     15.66161         0.001815     -0.005228      0.001252
     26.94677      2.58769     15.66354         0.003092     -0.000868     -0.004018
     26.94590      5.95834     12.14144         0.004373      0.003403      0.005480
     26.94605      1.68470     12.14328        -0.004694      0.009213     -0.001315
     26.94809      0.18239     15.66557         0.000014      0.004375      0.002665
     26.94795      4.45597     15.66710         0.004495      0.000279     -0.006123
     10.27683      0.18103     15.84534         0.012624      0.004524      0.018376
     10.27116      4.46429     15.80183         0.002250      0.001011      0.000509
     10.27424      1.67441     11.83979         0.011251      0.009003     -0.017716
     10.27308      5.95414     12.11926         0.008516      0.006868      0.002723
     10.27412      2.58514     15.97085         0.001868     -0.003828      0.005243
     10.27664      6.86496     15.69619         0.006470     -0.006939      0.008530
     10.27162      8.35865     12.11473         0.007878     -0.001095      0.003518
     10.27326      4.09112     11.84301         0.006870      0.000334     -0.018951
     12.29262      2.88061     13.75504        -0.005280      0.003021     -0.007001
 -----------------------------------------------------------------------------------
    total drift:                               -0.038246     -0.005021     -0.008955


--------------------------------------------------------------------------------------------------------



  FREE ENERGIE OF THE ION-ELECTRON SYSTEM (eV)
  ---------------------------------------------------
  free  energy   TOTEN  =     -1020.95108443 eV

  energy  without entropy=    -1020.91596010  energy(sigma->0) =    -1020.93352227



--------------------------------------------------------------------------------------------------------


    POTLOK:  cpu time    0.3427: real time    0.3462


--------------------------------------------------------------------------------------------------------


 stress matrix after NEB project (eV)
    -11.64109     -0.07288      0.04999
     -0.07288     11.08887     -0.30947
      0.04999     -0.30947    -15.77312
  FORCES: max atom, RMS     0.028287    0.015571
  FORCE total and by dimension    0.171278    0.026715
  Stress total and by dimension   22.527237   15.773122
 writing wavefunctions
     LOOP+:  cpu time 1817.0388: real time 1828.5664
    4ORBIT:  cpu time    0.0000: real time    0.0000

 total amount of memory used by VASP MPI-rank0   315296. kBytes
=======================================================================

   base      :      30000. kBytes
   nonlr-proj:       4968. kBytes
   fftplans  :      16574. kBytes
   grid      :      43462. kBytes
   one-center:        190. kBytes
   wavefun   :     220102. kBytes

  
  
 General timing and accounting informations for this job:
 ========================================================
  
                  Total CPU time used (sec):     1860.302
                            User time (sec):     1853.408
                          System time (sec):        6.894
                         Elapsed time (sec):     1872.929
  
                   Maximum memory used (kb):      491664.
                   Average memory used (kb):           0.
  
                          Minor page faults:       490117
                          Major page faults:            2
                 Voluntary context switches:         6923
