 vasp.5.4.4.18Apr17-6-g9f103f2a35 (build Sep 10 2024 21:01:58) complex           
 executed on             LinuxGNU date 2025.04.14  14:39:47
 running on   40 total cores
 distrk:  each k-point on   40 cores,    1 groups
 distr:  one band on NCORES_PER_BAND=   4 cores,   10 groups


--------------------------------------------------------------------------------------------------------


 INCAR:
 POTCAR:    PAW_PBE C 08Apr2002                   
 POTCAR:    PAW_PBE H 15Jun2001                   
 POTCAR:    PAW_PBE Li 17Jan2003                  
 POTCAR:    PAW_PBE C 08Apr2002                   
   SHA256 =  253f7b50bb8d59471dbedb8285d89021f4a42ed1a2c5d38a03a736e69125dd95 C/
   COPYR  = (c) Copyright 08Apr2002 Georg Kresse                                
   COPYR  = This file is part of the software VASP. Any use, copying, and all ot
   COPYR  = If you do not have a valid VASP license, you may not use, copy or di
   VRHFIN =C: s2p2                                                              
   LEXCH  = PE                                                                  
   EATOM  =   147.1560 eV,   10.8157 Ry                                         
                                                                                
   TITEL  = PAW_PBE C 08Apr2002                                                 
   LULTRA =        F    use ultrasoft PP ?                                      
   IUNSCR =        1    unscreen: 0-lin 1-nonlin 2-no                           
   RPACOR =    1.200    partial core radius                                     
   POMASS =   12.011; ZVAL   =    4.000    mass and valenz                      
   RCORE  =    1.500    outmost cutoff radius                                   
   RWIGS  =    1.630; RWIGS  =    0.863    wigner-seitz radius (au A)           
   ENMAX  =  400.000; ENMIN  =  300.000 eV                                      
   ICORE  =        2    local potential                                         
   LCOR   =        T    correct aug charges                                     
   LPAW   =        T    paw PP                                                  
   EAUG   =  644.873                                                            
   DEXC   =    0.000                                                            
   RMAX   =    1.529    core radius for proj-oper                               
   RAUG   =    1.300    factor for augmentation sphere                          
   RDEP   =    1.501    radius for radial grids                                 
   RDEPT  =    1.300    core radius for aug-charge                              
                                                                                
   Atomic configuration                                                         
    4 entries                                                                   
     n  l   j            E        occ.                                          
     1  0  0.50      -273.3789   2.0000                                         
     2  0  0.50       -13.7508   2.0000                                         
     2  1  0.50        -5.2854   2.0000                                         
     3  2  1.50        -5.4423   0.0000                                         
   Description                                                                  
     l       E           TYP  RCUT    TYP  RCUT                                 
     0    -13.7508458     23  1.200                                             
     0     -8.2022199     23  1.200                                             
     1     -5.2854383     23  1.500                                             
     1     34.0145650     23  1.500                                             
     2     -5.4423304      7  1.500                                             
  local pseudopotential read in
  partial core-charges read in
  partial kinetic energy density read in
  atomic valenz-charges read in
  non local Contribution for L=           0  read in
    real space projection operators read in
  non local Contribution for L=           0  read in
    real space projection operators read in
  non local Contribution for L=           1  read in
    real space projection operators read in
  non local Contribution for L=           1  read in
    real space projection operators read in
    PAW grid and wavefunctions read in

   number of l-projection  operators is LMAX  =           4
   number of lm-projection operators is LMMAX =           8

 POTCAR:    PAW_PBE H 15Jun2001                   
   SHA256 =  030f79b5d3ab3cf0e668861823c8fb652ff669f3e15e46930bd03bfd63a607b6 H/
   COPYR  = (c) Copyright 15Jun2001 Georg Kresse                                
   COPYR  = This file is part of the software VASP. Any use, copying, and all ot
   COPYR  = If you do not have a valid VASP license, you may not use, copy or di
   VRHFIN =H: ultrasoft test                                                    
   LEXCH  = PE                                                                  
   EATOM  =    12.4884 eV,    0.9179 Ry                                         
                                                                                
   TITEL  = PAW_PBE H 15Jun2001                                                 
   LULTRA =        F    use ultrasoft PP ?                                      
   IUNSCR =        0    unscreen: 0-lin 1-nonlin 2-no                           
   RPACOR =    0.000    partial core radius                                     
   POMASS =    1.000; ZVAL   =    1.000    mass and valenz                      
   RCORE  =    1.100    outmost cutoff radius                                   
   RWIGS  =    0.700; RWIGS  =    0.370    wigner-seitz radius (au A)           
   ENMAX  =  250.000; ENMIN  =  200.000 eV                                      
   RCLOC  =    0.701    cutoff for local pot                                    
   LCOR   =        T    correct aug charges                                     
   LPAW   =        T    paw PP                                                  
   EAUG   =  400.000                                                            
   RMAX   =    1.123    core radius for proj-oper                               
   RAUG   =    1.200    factor for augmentation sphere                          
   RDEP   =    1.112    radius for radial grids                                 
   RDEPT  =    0.926    core radius for aug-charge                              
                                                                                
   Atomic configuration                                                         
    2 entries                                                                   
     n  l   j            E        occ.                                          
     1  0  0.50        -6.4927   1.0000                                         
     2  1  0.50        -3.4015   0.0000                                         
   Description                                                                  
     l       E           TYP  RCUT    TYP  RCUT                                 
     0     -6.4927494     23  1.100                                             
     0      6.8029130     23  1.100                                             
     1     -4.0817478     23  1.100                                             
  local pseudopotential read in
  atomic valenz-charges read in
  non local Contribution for L=           0  read in
    real space projection operators read in
  non local Contribution for L=           0  read in
    real space projection operators read in
  non local Contribution for L=           1  read in
    real space projection operators read in
    PAW grid and wavefunctions read in

   number of l-projection  operators is LMAX  =           3
   number of lm-projection operators is LMMAX =           5

 POTCAR:    PAW_PBE Li 17Jan2003                  
   SHA256 =  3d9d9bfd1dd25b20a3b919cb3191e6ef627605783dc2e149b9290ff31c32aa6e Li
   COPYR  = (c) Copyright 17Jan2003 Georg Kresse                                
   COPYR  = This file is part of the software VASP. Any use, copying, and all ot
   COPYR  = If you do not have a valid VASP license, you may not use, copy or di
   VRHFIN =Li: s1p0                                                             
   LEXCH  = PE                                                                  
   EATOM  =     5.3001 eV,    0.3895 Ry                                         
                                                                                
   TITEL  = PAW_PBE Li 17Jan2003                                                
   LULTRA =        F    use ultrasoft PP ?                                      
   IUNSCR =        1    unscreen: 0-lin 1-nonlin 2-no                           
   RPACOR =    1.500    partial core radius                                     
   POMASS =    7.010; ZVAL   =    1.000    mass and valenz                      
   RCORE  =    2.050    outmost cutoff radius                                   
   RWIGS  =    2.600; RWIGS  =    1.376    wigner-seitz radius (au A)           
   ENMAX  =  140.000; ENMIN  =  100.000 eV                                      
   ICORE  =        2    local potential                                         
   LCOR   =        T    correct aug charges                                     
   LPAW   =        T    paw PP                                                  
   EAUG   =  331.638                                                            
   DEXC   =    0.000                                                            
   RMAX   =    2.098    core radius for proj-oper                               
   RAUG   =    1.300    factor for augmentation sphere                          
   RDEP   =    2.094    radius for radial grids                                 
   RDEPT  =    1.810    core radius for aug-charge                              
                                                                                
   Atomic configuration                                                         
    4 entries                                                                   
     n  l   j            E        occ.                                          
     1  0  0.50       -51.8549   2.0000                                         
     2  0  0.50        -2.8742   1.0000                                         
     2  1  0.50        -1.3606   0.0000                                         
     3  2  1.50        -1.3606   0.0000                                         
   Description                                                                  
     l       E           TYP  RCUT    TYP  RCUT                                 
     0     -2.8742052     23  2.050                                             
     0     27.2116520     23  2.050                                             
     1     -1.3605826     23  2.050                                             
     2     -1.3605826     23  2.050                                             
  local pseudopotential read in
  partial core-charges read in
  partial kinetic energy density read in
  atomic valenz-charges read in
  non local Contribution for L=           0  read in
    real space projection operators read in
  non local Contribution for L=           0  read in
    real space projection operators read in
  non local Contribution for L=           1  read in
    real space projection operators read in
    PAW grid and wavefunctions read in

   number of l-projection  operators is LMAX  =           3
   number of lm-projection operators is LMMAX =           5

 Optimization of the real space projectors (new method)

 maximal supplied QI-value         = 25.13
 optimisation between [QCUT,QGAM] = [ 10.05, 20.36] = [ 28.30,116.06] Ry 
 Optimized for a Real-space Cutoff    1.30 Angstroem

   l    n(q)    QCUT    max X(q) W(low)/X(q) W(high)/X(q)  e(spline) 
   0      8    10.053   115.676    0.49E-03    0.72E-03    0.18E-06
   0      8    10.053    87.132    0.49E-03    0.71E-03    0.18E-06
   1      7    10.053     4.429    0.32E-03    0.31E-03    0.18E-06
   1      7    10.053     2.733    0.23E-03    0.19E-03    0.20E-06
 Optimization of the real space projectors (new method)

 maximal supplied QI-value         = 34.20
 optimisation between [QCUT,QGAM] = [  9.92, 20.18] = [ 27.55,114.04] Ry 
 Optimized for a Real-space Cutoff    1.26 Angstroem

   l    n(q)    QCUT    max X(q) W(low)/X(q) W(high)/X(q)  e(spline) 
   0      8     9.919    19.460    0.50E-03    0.23E-03    0.29E-06
   0      8     9.919    12.209    0.48E-03    0.23E-03    0.28E-06
   1      7     9.919     4.655    0.17E-03    0.75E-03    0.30E-06
 Optimization of the real space projectors (new method)

 maximal supplied QI-value         = 18.33
 optimisation between [QCUT,QGAM] = [ 10.08, 20.35] = [ 28.46,115.93] Ry 
 Optimized for a Real-space Cutoff    1.16 Angstroem

   l    n(q)    QCUT    max X(q) W(low)/X(q) W(high)/X(q)  e(spline) 
   0      7    10.082    33.825    0.44E-03    0.14E-03    0.78E-07
   0      7    10.082     8.944    0.33E-03    0.12E-03    0.56E-07
   1      6    10.082     4.214    0.33E-03    0.37E-03    0.39E-07
  PAW_PBE C 08Apr2002                   :
 energy of atom  1       EATOM= -147.1560
 kinetic energy error for atom=    0.0288 (will be added to EATOM!!)
  PAW_PBE H 15Jun2001                   :
 energy of atom  2       EATOM=  -12.4884
 kinetic energy error for atom=    0.0098 (will be added to EATOM!!)
  PAW_PBE Li 17Jan2003                  :
 energy of atom  3       EATOM=   -5.3001
 kinetic energy error for atom=    0.0000 (will be added to EATOM!!)


 POSCAR: C4                                      
  positions in direct lattice
  velocities in cartesian coordinates
 exchange correlation table for  LEXCH =        8
   RHO(1)=    0.500       N(1)  =     2000
   RHO(2)=  100.500       N(2)  =     4000

 VTST: version 3.2, (02/03/18)

 CHAIN: initializing optimizer
 
 OPT: Using VASP Conjugate-Gradient optimizer
 CHAIN: Read ICHAIN            0

 POSCAR: C4                                      
  positions in direct lattice
  velocities in cartesian coordinates



--------------------------------------------------------------------------------------------------------


 ion  position               nearest neighbor table
   1  0.500  0.833  0.437-  56 1.42  64 1.42  49 1.43
   2  0.731  0.833  0.563- 112 1.09  90 1.40  74 1.40
   3  0.384  0.833  0.436-  53 1.42  61 1.42  51 1.43
   4  0.615  0.833  0.437-  54 1.42  62 1.42  52 1.43
   5  0.442  0.667  0.437-  49 1.42  65 1.42  53 1.43
   6  0.673  0.667  0.437-  50 1.42  66 1.42  54 1.43
   7  0.327  0.667  0.436-  51 1.42  67 1.42  55 1.44
   8  0.557  0.667  0.437-  52 1.42  68 1.42  56 1.43
   9  0.500  0.167  0.437-  72 1.42  64 1.42  57 1.43
  10  0.731  0.167  0.563- 114 1.09  74 1.40  82 1.40
  11  0.384  0.167  0.436-  69 1.42  61 1.42  59 1.43
  12  0.615  0.167  0.437-  70 1.42  62 1.42  60 1.43
  13  0.442  0.000  0.436-  49 1.42  57 1.42  61 1.43
  14  0.673  0.000  0.437-  50 1.42  58 1.42  62 1.43
  15  0.327  0.000  0.436-  51 1.42  59 1.42  63 1.44
  16  0.557  0.000  0.437-  52 1.42  60 1.42  64 1.43
  17  0.500  0.500  0.437-  72 1.42  56 1.42  65 1.43
  18  0.731  0.500  0.563- 113 1.09  82 1.40  90 1.40
  19  0.384  0.500  0.436-  69 1.42  53 1.42  67 1.43
  20  0.615  0.500  0.437-  70 1.42  54 1.42  68 1.43
  21  0.442  0.333  0.437-  57 1.42  65 1.42  69 1.43
  22  0.673  0.333  0.437-  58 1.42  66 1.42  70 1.43
  23  0.327  0.333  0.436-  59 1.42  67 1.42  71 1.44
  24  0.557  0.333  0.437-  60 1.42  68 1.42  72 1.43
  25  0.269  0.833  0.437- 109 1.09  55 1.40  63 1.40
  26  0.500  0.833  0.563-  89 1.42  73 1.42  80 1.43
  27  0.385  0.833  0.563-  75 1.42  91 1.42  77 1.43
  28  0.616  0.833  0.564-  92 1.42  76 1.42  78 1.43
  29  0.443  0.667  0.563-  77 1.42  93 1.42  89 1.43
  30  0.673  0.667  0.564-  78 1.42  94 1.42  90 1.44
  31  0.327  0.667  0.564-  79 1.42  95 1.42  91 1.43
  32  0.558  0.667  0.563-  80 1.42  96 1.42  92 1.43
  33  0.269  0.167  0.437- 111 1.09  71 1.40  63 1.40
  34  0.500  0.167  0.563-  81 1.42  73 1.42  88 1.43
  35  0.385  0.167  0.563-  83 1.42  75 1.42  85 1.43
  36  0.616  0.167  0.564-  84 1.42  76 1.42  86 1.43
  37  0.443  1.000  0.563-  85 1.42  77 1.42  73 1.43
  38  0.673  1.000  0.564-  78 1.42  86 1.42  74 1.44
  39  0.327  1.000  0.564-  79 1.42  87 1.42  75 1.43
  40  0.558  1.000  0.563-  88 1.42  80 1.42  76 1.43
  41  0.269  0.500  0.437- 110 1.09  55 1.40  71 1.40
  42  0.500  0.500  0.563-  81 1.42  89 1.42  96 1.43
  43  0.385  0.500  0.563-  83 1.42  91 1.42  93 1.43
  44  0.616  0.500  0.564-  92 1.42  84 1.42  94 1.43
  45  0.443  0.333  0.563-  85 1.42  93 1.42  81 1.43
  46  0.673  0.333  0.564-  86 1.42  94 1.42  82 1.44
  47  0.327  0.333  0.564-  87 1.42  95 1.42  83 1.43
  48  0.558  0.333  0.563-  88 1.42  96 1.42  84 1.43
  49  0.461  0.833  0.437-   5 1.42  13 1.42   1 1.43
  50  0.692  0.833  0.436-   6 1.42  14 1.42 100 1.44
  51  0.346  0.833  0.436-  15 1.42   7 1.42   3 1.43
  52  0.577  0.833  0.437-   8 1.42  16 1.42   4 1.43
  53  0.403  0.667  0.436-   3 1.42  19 1.42   5 1.43
  54  0.634  0.667  0.437-   4 1.42  20 1.42   6 1.43
  55  0.288  0.667  0.436-  25 1.40  41 1.40   7 1.44
  56  0.519  0.667  0.437-   1 1.42  17 1.42   8 1.43
  57  0.461  0.167  0.437-  21 1.42  13 1.42   9 1.43
  58  0.692  0.167  0.436-  22 1.42  14 1.42 102 1.44
  59  0.346  0.167  0.436-  15 1.42  23 1.42  11 1.43
  60  0.577  0.167  0.437-  24 1.42  16 1.42  12 1.43
  61  0.403  0.000  0.436-  11 1.42   3 1.42  13 1.43
  62  0.634  0.000  0.437-   4 1.42  12 1.42  14 1.43
  63  0.288  0.000  0.436-  25 1.40  33 1.40  15 1.44
  64  0.519  0.000  0.437-   9 1.42   1 1.42  16 1.43
  65  0.461  0.500  0.437-  21 1.42   5 1.42  17 1.43
  66  0.692  0.500  0.436-  22 1.42   6 1.42 101 1.44
  67  0.346  0.500  0.436-  23 1.42   7 1.42  19 1.43
  68  0.577  0.500  0.437-   8 1.42  24 1.42  20 1.43
  69  0.403  0.333  0.436-  11 1.42  19 1.42  21 1.43
  70  0.634  0.333  0.437-  12 1.42  20 1.42  22 1.43
  71  0.288  0.333  0.436-  33 1.40  41 1.40  23 1.44
  72  0.519  0.333  0.437-   9 1.42  17 1.42  24 1.43
  73  0.481  1.000  0.563-  34 1.42  26 1.42  37 1.43
  74  0.712  1.000  0.564-  10 1.40   2 1.40  38 1.44
  75  0.366  1.000  0.563-  27 1.42  35 1.42  39 1.43
  76  0.596  1.000  0.564-  36 1.42  28 1.42  40 1.43
  77  0.423  0.833  0.563-  29 1.42  37 1.42  27 1.43
  78  0.654  0.833  0.564-  38 1.42  30 1.42  28 1.43
  79  0.308  0.833  0.564-  31 1.42  39 1.42  97 1.44
  80  0.539  0.833  0.563-  32 1.42  40 1.42  26 1.43
  81  0.481  0.333  0.563-  34 1.42  42 1.42  45 1.43
  82  0.712  0.333  0.564-  18 1.40  10 1.40  46 1.44
  83  0.366  0.333  0.563-  43 1.42  35 1.42  47 1.43
  84  0.596  0.333  0.564-  36 1.42  44 1.42  48 1.43
  85  0.423  0.167  0.563-  45 1.42  37 1.42  35 1.43
  86  0.654  0.167  0.564-  38 1.42  46 1.42  36 1.43
  87  0.308  0.167  0.564-  47 1.42  39 1.42  99 1.44
  88  0.539  0.167  0.563-  48 1.42  40 1.42  34 1.43
  89  0.481  0.667  0.563-  26 1.42  42 1.42  29 1.43
  90  0.712  0.667  0.564-   2 1.40  18 1.40  30 1.44
  91  0.366  0.667  0.563-  27 1.42  43 1.42  31 1.43
  92  0.596  0.667  0.564-  28 1.42  44 1.42  32 1.43
  93  0.423  0.500  0.563-  29 1.42  45 1.42  43 1.43
  94  0.654  0.500  0.564-  46 1.42  30 1.42  44 1.43
  95  0.308  0.500  0.564-  47 1.42  31 1.42  98 1.44
  96  0.539  0.500  0.563-  32 1.42  48 1.42  42 1.43
  97  0.269  0.833  0.564- 103 1.40 105 1.40  79 1.44
  98  0.269  0.500  0.564- 103 1.40 104 1.40  95 1.44
  99  0.269  0.167  0.564- 104 1.40 105 1.40  87 1.44
 100  0.731  0.833  0.436- 108 1.40 106 1.40  50 1.44
 101  0.731  0.500  0.436- 107 1.40 108 1.40  66 1.44
 102  0.731  0.167  0.436- 106 1.40 107 1.40  58 1.44
 103  0.251  0.667  0.564- 115 1.09  97 1.40  98 1.40
 104  0.251  0.333  0.564- 116 1.09  99 1.40  98 1.40
 105  0.251  1.000  0.564- 117 1.09  99 1.40  97 1.40
 106  0.749  0.000  0.436- 118 1.09 102 1.40 100 1.40
 107  0.749  0.333  0.436- 119 1.09 101 1.40 102 1.40
 108  0.749  0.667  0.436- 120 1.09 101 1.40 100 1.40
 109  0.240  0.833  0.437-  25 1.09
 110  0.240  0.500  0.437-  41 1.09
 111  0.240  0.167  0.437-  33 1.09
 112  0.760  0.833  0.563-   2 1.09
 113  0.760  0.500  0.563-  18 1.09
 114  0.760  0.167  0.563-  10 1.09
 115  0.221  0.667  0.564- 103 1.09
 116  0.221  0.333  0.564- 104 1.09
 117  0.221  1.000  0.564- 105 1.09
 118  0.779  0.000  0.436- 106 1.09
 119  0.779  0.333  0.436- 107 1.09
 120  0.779  0.667  0.436- 108 1.09
 121  0.140  0.333  0.500-

  LATTYP: Found a simple orthorhombic cell.
 ALAT       =     7.3546423912
 B/A-ratio  =     3.7803434082
 C/A-ratio  =     5.0436007255
  
  Lattice vectors:
  
 A1 = (   0.0000000000,   7.3546423912,   0.0000000000)
 A2 = (   0.0000000000,   0.0000000000, -27.8030738831)
 A3 = ( -37.0938796997,   0.0000000000,   0.0000000000)


Analysis of symmetry for initial positions (statically):
=====================================================================
 Subroutine PRICEL returns:
 Original cell was already a primitive cell.
 

 Routine SETGRP: Setting up the symmetry group for a 
 simple orthorhombic supercell.


 Subroutine GETGRP returns: Found  1 space group operations
 (whereof  1 operations were pure point group operations)
 out of a pool of  8 trial point group operations.


The static configuration has the point symmetry C_1 .


Analysis of symmetry for dynamics (positions and initial velocities):
=====================================================================
 Subroutine PRICEL returns:
 Original cell was already a primitive cell.
 

 Routine SETGRP: Setting up the symmetry group for a 
 simple orthorhombic supercell.


 Subroutine GETGRP returns: Found  1 space group operations
 (whereof  1 operations were pure point group operations)
 out of a pool of  8 trial point group operations.


The dynamic configuration has the point symmetry C_1 .


Analysis of structural, dynamic, and magnetic symmetry:
=====================================================================
 Subroutine PRICEL returns:
 Original cell was already a primitive cell.
 

 Routine SETGRP: Setting up the symmetry group for a 
 simple orthorhombic supercell.


 Subroutine GETGRP returns: Found  1 space group operations
 (whereof  1 operations were pure point group operations)
 out of a pool of  8 trial point group operations.


The magnetic configuration has the point symmetry C_1 .


 Subroutine INISYM returns: Found  1 space group operations
 (whereof  1 operations are pure point group operations),
 and found     1 'primitive' translations



 KPOINTS: Regular k-point mesh                    

Automatic generation of k-mesh.
Space group operators:
 irot       det(A)        alpha          n_x          n_y          n_z        tau_x        tau_y        tau_z
    1     1.000000     0.000000     1.000000     0.000000     0.000000     0.000000     0.000000     0.000000
 
 Subroutine IBZKPT returns following result:
 ===========================================
 
 Found      5 irreducible k-points:
 
 Following reciprocal coordinates:
            Coordinates               Weight
  0.000000  0.000000  0.000000      1.000000
  0.000000  0.125000  0.000000      2.000000
  0.000000  0.250000  0.000000      2.000000
  0.000000  0.375000  0.000000      2.000000
  0.000000  0.500000  0.000000      1.000000
 
 Following cartesian coordinates:
            Coordinates               Weight
  0.000000  0.000000  0.000000      1.000000
  0.000000  0.016996  0.000000      2.000000
  0.000000  0.033992  0.000000      2.000000
  0.000000  0.050988  0.000000      2.000000
  0.000000  0.067984  0.000000      1.000000
 


--------------------------------------------------------------------------------------------------------




 Dimension of arrays:
   k-points           NKPTS =      5   k-points in BZ     NKDIM =      5   number of bands    NBANDS=    350
   number of dos      NEDOS =    301   number of ions     NIONS =    121
   non local maximal  LDIM  =      4   non local SUM 2l+1 LMDIM =      8
   total plane-waves  NPLWV = 967680
   max r-space proj   IRMAX =   1227   max aug-charges    IRDMAX=   4281
   dimension x,y,z NGX =   192 NGY =   36 NGZ =  140
   dimension x,y,z NGXF=   384 NGYF=   72 NGZF=  280
   support grid    NGXF=   384 NGYF=   72 NGZF=  280
   ions per type =             108  12   1
   NGX,Y,Z   is equivalent  to a cutoff of   8.60,  8.14,  8.37 a.u.
   NGXF,Y,Z  is equivalent  to a cutoff of  17.21, 16.28, 16.74 a.u.

 SYSTEM =  unknown system                          
 POSCAR =  C4                                      

 Startparameter for this run:
   NWRITE =      2    write-flag & timer
   PREC   = normal    normal or accurate (medium, high low for compatibility)
   ISTART =      0    job   : 0-new  1-cont  2-samecut
   ICHARG =      2    charge: 1-file 2-atom 10-const
   ISPIN  =      2    spin polarized calculation?
   LNONCOLLINEAR =      F non collinear calculations
   LSORBIT =      F    spin-orbit coupling
   INIWAV =      1    electr: 0-lowe 1-rand  2-diag
   LASPH  =      F    aspherical Exc in radial PAW
   METAGGA=      F    non-selfconsistent MetaGGA calc.

 Electronic Relaxation 1
   ENCUT  =  400.0 eV  29.40 Ry    5.42 a.u.  60.49 11.99 45.34*2*pi/ulx,y,z
   ENINI  =  400.0     initial cutoff
   ENAUG  =  644.9 eV  augmentation charge cutoff
   NELM   =    100;   NELMIN=  2; NELMDL= -5     # of ELM steps 
   EDIFF  = 0.1E-03   stopping-criterion for ELM
   LREAL  =      T    real-space projection
   NLSPLINE    = F    spline interpolate recip. space projectors
   LCOMPAT=      F    compatible to vasp.4.4
   GGA_COMPAT  = T    GGA compatible to vasp.4.4-vasp.4.6
   LMAXPAW     = -100 max onsite density
   LMAXMIX     =    2 max onsite mixed and CHGCAR
   VOSKOWN=      0    Vosko Wilk Nusair interpolation
   ROPT   =   -0.00050  -0.00050  -0.00050
 Ionic relaxation
   EDIFFG = -.1E-01   stopping-criterion for IOM
   NSW    =      0    number of steps for IOM
   NBLOCK =      1;   KBLOCK =      1    inner block; outer block 
   IBRION =     -1    ionic relax: 0-MD 1-quasi-New 2-CG
   NFREE  =      1    steps in history (QN), initial steepest desc. (CG)
   ISIF   =      2    stress and relaxation
   IWAVPR =     10    prediction:  0-non 1-charg 2-wave 3-comb
   ISYM   =      2    0-nonsym 1-usesym 2-fastsym
   LCORR  =      T    Harris-Foulkes like correction to forces

   POTIM  = 0.5000    time-step for ionic-motion
   TEIN   =    0.0    initial temperature
   TEBEG  =    0.0;   TEEND  =   0.0 temperature during run
   SMASS  =  -3.00    Nose mass-parameter (am)
   estimated Nose-frequenzy (Omega)   =  0.10E-29 period in steps =****** mass=  -0.314E-25a.u.
   SCALEE = 1.0000    scale energy and forces
   NPACO  =    256;   APACO  = 16.0  distance and # of slots for P.C.
   PSTRESS=    0.0 pullay stress

  Mass of Ions in am
   POMASS =  12.01  1.00  7.01
  Ionic Valenz
   ZVAL   =   4.00  1.00  1.00
  Atomic Wigner-Seitz radii
   RWIGS  =  -1.00 -1.00 -1.00
  virtual crystal weights 
   VCA    =   1.00  1.00  1.00
   NELECT =     445.0000    total number of electrons
   NUPDOWN=      -1.0000    fix difference up-down

 DOS related values:
   EMIN   =  10.00;   EMAX   =-10.00  energy-range for DOS
   EFERMI =   0.00
   ISMEAR =     0;   SIGMA  =   0.10  broadening in eV -4-tet -1-fermi 0-gaus

 Electronic relaxation 2 (details)
   IALGO  =     38    algorithm
   LDIAG  =      T    sub-space diagonalisation (order eigenvalues)
   LSUBROT=      F    optimize rotation matrix (better conditioning)
   TURBO    =      0    0=normal 1=particle mesh
   IRESTART =      0    0=no restart 2=restart with 2 vectors
   NREBOOT  =      0    no. of reboots
   NMIN     =      0    reboot dimension
   EREF     =   0.00    reference energy to select bands
   IMIX   =      4    mixing-type and parameters
     AMIX     =   0.40;   BMIX     =  1.00
     AMIX_MAG =   1.60;   BMIX_MAG =  1.00
     AMIN     =   0.10
     WC   =   100.;   INIMIX=   1;  MIXPRE=   1;  MAXMIX= -45

 Intra band minimization:
   WEIMIN = 0.0000     energy-eigenvalue tresh-hold
   EBREAK =  0.71E-07  absolut break condition
   DEPER  =   0.30     relativ break condition  

   TIME   =   0.40     timestep for ELM

  volume/ion in A,a.u.               =      62.69       423.03
  Fermi-wavevector in a.u.,A,eV,Ry     =   0.636125  1.202102  5.505670  0.404655
  Thomas-Fermi vector in A             =   1.700690

 Write flags
   LWAVE        =      T    write WAVECAR
   LDOWNSAMPLE  =      F    k-point downsampling of WAVECAR
   LCHARG       =      T    write CHGCAR
   LVTOT        =      F    write LOCPOT, total local potential
   LVHAR        =      F    write LOCPOT, Hartree potential only
   LELF         =      F    write electronic localiz. function (ELF)
   LORBIT       =      0    0 simple, 1 ext, 2 COOP (PROOUT), +10 PAW based schemes


 Dipole corrections
   LMONO  =      F    monopole corrections only (constant potential shift)
   LDIPOL =      F    correct potential (dipole corrections)
   IDIPOL =      0    1-x, 2-y, 3-z, 4-all directions 
   EPSILON=  1.0000000 bulk dielectric constant

 Exchange correlation treatment:
   GGA     =    --    GGA type
   LEXCH   =     8    internal setting for exchange type
   VOSKOWN=      0    Vosko Wilk Nusair interpolation
   LHFCALC =     F    Hartree Fock is set to
   LHFONE  =     F    Hartree Fock one center treatment
   AEXX    =    0.0000 exact exchange contribution

 Linear response parameters
   LEPSILON=     F    determine dielectric tensor
   LRPA    =     F    only Hartree local field effects (RPA)
   LNABLA  =     F    use nabla operator in PAW spheres
   LVEL    =     F    velocity operator in full k-point grid
   LINTERFAST=   F  fast interpolation
   KINTER  =     0    interpolate to denser k-point grid
   CSHIFT  =0.1000    complex shift for real part using Kramers Kronig
   OMEGAMAX=  -1.0    maximum frequency
   DEG_THRESHOLD= 0.2000000E-02 threshold for treating states as degnerate
   RTIME   =   -0.100 relaxation time in fs
  (WPLASMAI=    0.000 imaginary part of plasma frequency in eV, 0.658/RTIME)
   DFIELD  = 0.0000000 0.0000000 0.0000000 field for delta impulse in time

 Orbital magnetization related:
   ORBITALMAG=     F  switch on orbital magnetization
   LCHIMAG   =     F  perturbation theory with respect to B field
   DQ        =  0.001000  dq finite difference perturbation B field
   LLRAUG    =     F  two centre corrections for induced B field



--------------------------------------------------------------------------------------------------------


 Static calculation
 charge density and potential will be updated during run
 spin polarized calculation
 Variant of blocked Davidson
 Davidson routine will perform the subspace rotation
 perform sub-space diagonalisation
    after iterative eigenvector-optimisation
 modified Broyden-mixing scheme, WC =      100.0
 initial mixing is a Kerker type mixing with AMIX =  0.4000 and BMIX =      1.0000
 Hartree-type preconditioning will be used
 using additional bands          127
 real space projection scheme for non local part
 use partial core corrections
 calculate Harris-corrections to forces   (improved forces if not selfconsistent)
 use gradient corrections 
 use of overlap-Matrix (Vanderbilt PP)
 Gauss-broadening in eV      SIGMA  =   0.10


--------------------------------------------------------------------------------------------------------


  energy-cutoff  :      400.00
  volume of cell :     7585.02
      direct lattice vectors                 reciprocal lattice vectors
    37.093879700  0.000000000  0.000000000     0.026958625  0.000000000  0.000000000
     0.000000000  7.354642391  0.000000000     0.000000000  0.135968542  0.000000000
     0.000000000  0.000000000 27.803073883     0.000000000  0.000000000  0.035967246

  length of vectors
    37.093879700  7.354642391 27.803073883     0.026958625  0.135968542  0.035967246



 k-points in units of 2pi/SCALE and weight: Regular k-point mesh                    
   0.00000000  0.00000000  0.00000000       0.125
   0.00000000  0.01699607  0.00000000       0.250
   0.00000000  0.03399214  0.00000000       0.250
   0.00000000  0.05098820  0.00000000       0.250
   0.00000000  0.06798427  0.00000000       0.125

 k-points in reciprocal lattice and weights: Regular k-point mesh                    
   0.00000000  0.00000000  0.00000000       0.125
   0.00000000  0.12500000  0.00000000       0.250
   0.00000000  0.25000000  0.00000000       0.250
   0.00000000  0.37500000  0.00000000       0.250
   0.00000000  0.50000000  0.00000000       0.125

 position of ions in fractional coordinates (direct lattice) 
   0.49962302  0.83334596  0.43662535
   0.73066134  0.83331610  0.56339515
   0.38423247  0.83334677  0.43625725
   0.61505701  0.83335187  0.43674515
   0.44192569  0.66669330  0.43650211
   0.67283007  0.66668896  0.43653958
   0.32654510  0.66669217  0.43616746
   0.55733142  0.66669999  0.43672913
   0.49962268  0.16670877  0.43662594
   0.73066113  0.16662071  0.56339476
   0.38423226  0.16669335  0.43625750
   0.61505700  0.16670545  0.43674605
   0.44192710  0.00001920  0.43647264
   0.67282633  0.00002146  0.43652694
   0.32655548  0.00001837  0.43616080
   0.55733021  0.00002212  0.43669884
   0.49962321  0.50002170  0.43665560
   0.73067088  0.49996892  0.56340083
   0.38422621  0.50001913  0.43628120
   0.61505966  0.50002701  0.43676575
   0.44192634  0.33335008  0.43650303
   0.67283097  0.33336643  0.43654021
   0.32654507  0.33334499  0.43616702
   0.55733156  0.33334321  0.43672808
   0.26922946  0.83336080  0.43653581
   0.50025688  0.83327782  0.56329831
   0.38481573  0.83329936  0.56329157
   0.61565322  0.83329850  0.56362922
   0.44254345  0.66663618  0.56321302
   0.67334447  0.66664340  0.56375307
   0.32704450  0.66663636  0.56355285
   0.55795801  0.66664352  0.56342197
   0.26922837  0.16667521  0.43653734
   0.50025663  0.16664389  0.56329869
   0.38481583  0.16663999  0.56329305
   0.61565300  0.16664625  0.56362935
   0.44254526  0.99996676  0.56324491
   0.67333138  0.99997307  0.56375938
   0.32704839  0.99997225  0.56356953
   0.55795707  0.99997197  0.56344983
   0.26921779  0.50001919  0.43653016
   0.50025488  0.49996089  0.56327282
   0.38481501  0.49996611  0.56327469
   0.61565711  0.49997520  0.56361738
   0.44254402  0.33329096  0.56321247
   0.67334418  0.33330223  0.56375315
   0.32704384  0.33331426  0.56355356
   0.55795832  0.33330084  0.56342166
   0.46115511  0.83334925  0.43653427
   0.69196207  0.83335379  0.43638908
   0.34567751  0.83334323  0.43615399
   0.57656441  0.83335672  0.43672708
   0.40343889  0.66668949  0.43633941
   0.63426941  0.66669397  0.43671688
   0.28767251  0.66667702  0.43633102
   0.51886010  0.66669326  0.43666161
   0.46115498  0.16669179  0.43653550
   0.69196192  0.16669275  0.43638941
   0.34567765  0.16669595  0.43615529
   0.57656336  0.16669202  0.43672698
   0.40344034  0.00002514  0.43630849
   0.63426550  0.00002566  0.43670094
   0.28768462  0.00001934  0.43632595
   0.51885757  0.00002940  0.43663114
   0.46115439  0.50002253  0.43656315
   0.69196860  0.50002897  0.43639455
   0.34567160  0.50001599  0.43616051
   0.57656554  0.50002291  0.43674537
   0.40343908  0.33335188  0.43633911
   0.63426965  0.33336157  0.43671698
   0.28767217  0.33335832  0.43633172
   0.51886099  0.33335797  0.43666161
   0.48102273  0.99996236  0.56328966
   0.71220357  0.99997136  0.56360723
   0.36560545  0.99996569  0.56337048
   0.59644553  0.99997252  0.56358494
   0.42330983  0.83329654  0.56323966
   0.65421100  0.83329550  0.56375660
   0.30791330  0.83330673  0.56372061
   0.53872823  0.83330054  0.56339974
   0.48101722  0.33329401  0.56325893
   0.71221707  0.33330947  0.56359971
   0.36560263  0.33330322  0.56334552
   0.59644256  0.33330279  0.56355749
   0.42330996  0.16663732  0.56324021
   0.65421105  0.16665086  0.56375656
   0.30791349  0.16664027  0.56372051
   0.53872788  0.16664171  0.56339992
   0.48101754  0.66662880  0.56325893
   0.71221823  0.66663276  0.56360001
   0.36560258  0.66663724  0.56334571
   0.59644320  0.66664006  0.56355734
   0.42331137  0.49996598  0.56322040
   0.65421644  0.49997290  0.56374986
   0.30790592  0.49997608  0.56370932
   0.53872762  0.49997229  0.56337605
   0.26903638  0.83329748  0.56405128
   0.26902376  0.49997085  0.56403886
   0.26903748  0.16663653  0.56405114
   0.73084046  0.83334764  0.43613705
   0.73085283  0.50001879  0.43615544
   0.73084021  0.16669278  0.43613737
   0.25057093  0.66665379  0.56420596
   0.25057262  0.33327946  0.56420622
   0.25057986  0.99997191  0.56421891
   0.74930133  0.00002525  0.43604197
   0.74931007  0.33333983  0.43604803
   0.74931067  0.66669884  0.43604832
   0.23975978  0.83348167  0.43706729
   0.23974918  0.50001992  0.43706666
   0.23975913  0.16655446  0.43706806
   0.76013020  0.83342324  0.56287121
   0.76014095  0.49996936  0.56287594
   0.76013050  0.16651573  0.56287109
   0.22109754  0.66674002  0.56445777
   0.22110088  0.33320722  0.56445794
   0.22110271  0.99997508  0.56444496
   0.77877843  0.00001864  0.43592714
   0.77878103  0.33326140  0.43591122
   0.77878319  0.66677104  0.43591173
   0.14022000  0.33287245  0.50015937

 position of ions in cartesian coordinates  (Angst):
  18.53295627  6.12896150 12.13952695
  27.10306372  6.12874193 15.66411695
  14.25267299  6.12896745 12.12929264
  22.81485090  6.12900502 12.14285772
  16.39273824  4.90329083 12.13610028
  24.95787772  4.90325886 12.13714218
  12.11282480  4.90328247 12.12679615
  20.67358480  4.90333998 12.14241221
  18.53294374  1.22608341 12.13954321
  27.10305605  1.22543573 15.66410609
  14.25266518  1.22596998 12.12929962
  22.81485027  1.22605893 12.14288270
  16.39279076  0.00014124 12.13528108
  24.95773913  0.00015780 12.13679084
  12.11320961  0.00013512 12.12661086
  20.67353960  0.00016271 12.14157012
  18.53296333  3.67748082 12.14036784
  27.10341784  3.67709261 15.66427477
  14.25244085  3.67746192 12.12995834
  22.81494906  3.67751984 12.14343039
  16.39276261  2.45167059 12.13612600
  24.95791120  2.45179089 12.13715984
  12.11282358  2.45163319 12.12678380
  20.67358991  2.45162009 12.14238309
   9.98676519  6.12907063 12.13703733
  18.55646859  6.12846034 15.66142467
  14.27430831  6.12861879 15.66123719
  22.83696661  6.12861247 15.67062486
  16.41565363  4.90287074 15.65905328
  24.97695872  4.90292378 15.67406837
  12.13134943  4.90287201 15.66850157
  20.69682734  4.90292467 15.66486270
   9.98672459  1.22583657 12.13707998
  18.55645921  1.22560623 15.66143501
  14.27431221  1.22557755 15.66127817
  22.83695815  1.22562357 15.67062847
  16.41572068  7.35439795 15.65993973
  24.97647327  7.35444435 15.67424382
  12.13149372  7.35443829 15.66896540
  20.69679232  7.35443622 15.66563714
   9.98633220  3.67746234 12.13688039
  18.55639433  3.67703353 15.66071594
  14.27428151  3.67707191 15.66076792
  22.83711084  3.67713881 15.67029564
  16.41567446  2.45123582 15.65903800
  24.97694783  2.45131874 15.67407043
  12.13132481  2.45140721 15.66852113
  20.69683879  2.45130852 15.66485396
  17.10603201  6.12898569 12.13699460
  25.66755774  6.12901910 12.13295779
  12.82251984  6.12894148 12.12642159
  21.38701074  6.12904068 12.14235525
  14.96511359  4.90326276 12.13157683
  23.52751307  4.90329573 12.14207174
  10.67088937  4.90317111 12.13134361
  19.24653403  4.90329051 12.14053501
  17.10602741  1.22595853 12.13702867
  25.66755216  1.22596554 12.13296696
  12.82252523  1.22598907 12.12645786
  21.38697191  1.22596016 12.14235256
  14.96516743  0.00018493 12.13071717
  23.52736820  0.00018875 12.14162851
  10.67133884  0.00014227 12.13120251
  19.24644025  0.00021622 12.13968793
  17.10600530  3.67748689 12.13779760
  25.66780003  3.67753426 12.13310980
  12.82230082  3.67743879 12.12660283
  21.38705275  3.67748970 12.14286376
  14.96512087  2.45168386 12.13156846
  23.52752194  2.45175513 12.14207436
  10.67087672  2.45173127 12.13136297
  19.24656710  2.45172863 12.14053502
  17.84299910  7.35436556 15.66118406
  26.41839348  7.35443176 15.67001357
  13.56172456  7.35439003 15.66343121
  22.12447879  7.35444030 15.66939379
  15.70220406  6.12859807 15.65979397
  24.26722425  6.12859038 15.67416628
  11.42169899  6.12867298 15.67316586
  19.98352017  6.12862744 15.66424454
  17.84279486  2.45125823 15.66032952
  26.41889419  2.45137198 15.66980445
  13.56161994  2.45132600 15.66273723
  22.12436842  2.45132279 15.66863048
  15.70220877  1.22555793 15.65980919
  24.26722585  1.22565748 15.67416540
  11.42170612  1.22557956 15.67316290
  19.98350721  1.22559018 15.66424950
  17.84280678  4.90281642 15.66032974
  26.41893741  4.90284554 15.66981275
  13.56161804  4.90287853 15.66274250
  22.12439221  4.90289924 15.66862627
  15.70226111  3.67707100 15.65925837
  24.26742608  3.67712192 15.67397905
  11.42142519  3.67714529 15.67285185
  19.98349756  3.67711739 15.66358598
   9.97960295  6.12860494 15.68235932
   9.97913512  3.67710679 15.68201413
   9.97964394  1.22555208 15.68235547
  27.10970817  6.12897391 12.12595057
  27.11016709  3.67745942 12.12646203
  27.10969880  1.22596580 12.12595950
   9.29464779  4.90300019 15.68665993
   9.29471055  2.45115122 15.68666710
   9.29497901  7.35443577 15.68702012
  27.79449340  0.00018568 12.12330701
  27.79481761  2.45159525 12.12347560
  27.79483993  4.90333154 12.12348366
   8.89362054  6.12995962 12.15181427
   8.89322707  3.67746767 12.15179668
   8.89359646  1.22494852 12.15183555
  28.19617832  6.12952986 15.64954983
  28.19657684  3.67709587 15.64968127
  28.19618929  1.22466361 15.64954648
   8.20136545  4.90363441 15.69366119
   8.20148961  2.45061997 15.69366574
   8.20155735  7.35445912 15.69330491
  28.88791346  0.00013710 12.12011440
  28.88800968  2.45101841 12.11967182
  28.88809011  4.90386259 12.11968607
   5.20130381  2.44815782 13.90596783



--------------------------------------------------------------------------------------------------------


 k-point  1 :   0.0000 0.0000 0.0000  plane waves:  137621
 k-point  2 :   0.0000 0.1250 0.0000  plane waves:  137658
 k-point  3 :   0.0000 0.2500 0.0000  plane waves:  137784
 k-point  4 :   0.0000 0.3750 0.0000  plane waves:  137874
 k-point  5 :   0.0000 0.5000 0.0000  plane waves:  137872

 maximum and minimum number of plane-waves per node :     34603    34274

 maximum number of plane-waves:    137874
 maximum index in each direction: 
   IXMAX=   60   IYMAX=   11   IZMAX=   45
   IXMIN=  -60   IYMIN=  -12   IZMIN=  -45


 real space projection operators:
  total allocation   :       8240.82 KBytes
  max/ min on nodes  :       2063.60       2055.25


 parallel 3D FFT for wavefunctions:
    minimum data exchange during FFTs selected (reduces bandwidth)
 parallel 3D FFT for charge:
    minimum data exchange during FFTs selected (reduces bandwidth)


 total amount of memory used by VASP MPI-rank0   280966. kBytes
=======================================================================

   base      :      30000. kBytes
   nonlr-proj:       4989. kBytes
   fftplans  :      14214. kBytes
   grid      :      37253. kBytes
   one-center:        190. kBytes
   wavefun   :     194320. kBytes

     INWAV:  cpu time    0.0001: real time    0.0001
 Broyden mixing: mesh for mixing (old mesh)
   NGX =121   NGY = 23   NGZ = 91
  (NGX  =384   NGY  = 72   NGZ  =280)
  gives a total of 253253 points

 initial charge density was supplied:
 charge density of overlapping atoms calculated
 number of electron     445.0000000 magnetization     121.0000000
 keeping initial charge density in first step


--------------------------------------------------------------------------------------------------------


 Maximum index for non-local projection operator          301
 Maximum index for augmentation-charges          150 (set IRDMAX)


--------------------------------------------------------------------------------------------------------


 First call to EWALD:  gamma=   0.090
 Maximum number of real-space cells 2x 7x 2
 Maximum number of reciprocal cells 5x 1x 4

    FEWALD:  cpu time    0.0141: real time    0.0142


--------------------------------------- Iteration      1(   1)  ---------------------------------------


    POTLOK:  cpu time    0.2661: real time    0.2819
    SETDIJ:  cpu time    0.0156: real time    0.0159
     EDDAV:  cpu time   40.7649: real time   41.1459
       DOS:  cpu time    0.0013: real time    0.0013
    --------------------------------------------
      LOOP:  cpu time   41.0480: real time   41.4450

 eigenvalue-minimisations  :  8580
 total energy-change (2. order) : 0.3562440E+04  (-0.1381758E+05)
 number of electron     445.0000000 magnetization     121.0000000
 augmentation part      445.0000000 magnetization     121.0000000

 Free energy of the ion-electron system (eV)
  ---------------------------------------------------
  alpha Z        PSCENC =       131.99278517
  Ewald energy   TEWEN  =    184076.53955715
  -Hartree energ DENC   =   -195401.68220318
  -exchange      EXHF   =         0.00000000
  -V(xc)+E(xc)   XCENC  =      1469.36114767
  PAW double counting   =     11735.59191605   -11790.67375283
  entropy T*S    EENTRO =        -0.29397771
  eigenvalues    EBANDS =     -2703.17982847
  atomic energy  EATOM  =     16044.78385898
  Solvation  Ediel_sol  =         0.00000000
  ---------------------------------------------------
  free energy    TOTEN  =      3562.43950283 eV

  energy without entropy =     3562.73348054  energy(sigma->0) =     3562.58649168


--------------------------------------------------------------------------------------------------------




--------------------------------------- Iteration      1(   2)  ---------------------------------------


     EDDAV:  cpu time   46.5977: real time   47.0261
       DOS:  cpu time    0.0023: real time    0.0023
    --------------------------------------------
      LOOP:  cpu time   46.6000: real time   47.0284

 eigenvalue-minimisations  : 10860
 total energy-change (2. order) :-0.3794544E+04  (-0.3470130E+04)
 number of electron     445.0000000 magnetization     121.0000000
 augmentation part      445.0000000 magnetization     121.0000000

 Free energy of the ion-electron system (eV)
  ---------------------------------------------------
  alpha Z        PSCENC =       131.99278517
  Ewald energy   TEWEN  =    184076.53955715
  -Hartree energ DENC   =   -195401.68220318
  -exchange      EXHF   =         0.00000000
  -V(xc)+E(xc)   XCENC  =      1469.36114767
  PAW double counting   =     11735.59191605   -11790.67375283
  entropy T*S    EENTRO =        -0.02516087
  eigenvalues    EBANDS =     -6497.99241337
  atomic energy  EATOM  =     16044.78385898
  Solvation  Ediel_sol  =         0.00000000
  ---------------------------------------------------
  free energy    TOTEN  =      -232.10426523 eV

  energy without entropy =     -232.07910435  energy(sigma->0) =     -232.09168479


--------------------------------------------------------------------------------------------------------




--------------------------------------- Iteration      1(   3)  ---------------------------------------


     EDDAV:  cpu time   41.9384: real time   42.3698
       DOS:  cpu time    0.0013: real time    0.0013
    --------------------------------------------
      LOOP:  cpu time   41.9398: real time   42.3712

 eigenvalue-minimisations  :  9440
 total energy-change (2. order) :-0.7893533E+03  (-0.7859038E+03)
 number of electron     445.0000000 magnetization     121.0000000
 augmentation part      445.0000000 magnetization     121.0000000

 Free energy of the ion-electron system (eV)
  ---------------------------------------------------
  alpha Z        PSCENC =       131.99278517
  Ewald energy   TEWEN  =    184076.53955715
  -Hartree energ DENC   =   -195401.68220318
  -exchange      EXHF   =         0.00000000
  -V(xc)+E(xc)   XCENC  =      1469.36114767
  PAW double counting   =     11735.59191605   -11790.67375283
  entropy T*S    EENTRO =        -0.02475995
  eigenvalues    EBANDS =     -7287.34606488
  atomic energy  EATOM  =     16044.78385898
  Solvation  Ediel_sol  =         0.00000000
  ---------------------------------------------------
  free energy    TOTEN  =     -1021.45751581 eV

  energy without entropy =    -1021.43275587  energy(sigma->0) =    -1021.44513584


--------------------------------------------------------------------------------------------------------




--------------------------------------- Iteration      1(   4)  ---------------------------------------


     EDDAV:  cpu time   42.7025: real time   43.1663
       DOS:  cpu time    0.0013: real time    0.0013
    --------------------------------------------
      LOOP:  cpu time   42.7037: real time   43.1676

 eigenvalue-minimisations  :  9330
 total energy-change (2. order) :-0.2978744E+02  (-0.2965673E+02)
 number of electron     445.0000000 magnetization     121.0000000
 augmentation part      445.0000000 magnetization     121.0000000

 Free energy of the ion-electron system (eV)
  ---------------------------------------------------
  alpha Z        PSCENC =       131.99278517
  Ewald energy   TEWEN  =    184076.53955715
  -Hartree energ DENC   =   -195401.68220318
  -exchange      EXHF   =         0.00000000
  -V(xc)+E(xc)   XCENC  =      1469.36114767
  PAW double counting   =     11735.59191605   -11790.67375283
  entropy T*S    EENTRO =        -0.02354562
  eigenvalues    EBANDS =     -7317.13471755
  atomic energy  EATOM  =     16044.78385898
  Solvation  Ediel_sol  =         0.00000000
  ---------------------------------------------------
  free energy    TOTEN  =     -1051.24495416 eV

  energy without entropy =    -1051.22140854  energy(sigma->0) =    -1051.23318135


--------------------------------------------------------------------------------------------------------




--------------------------------------- Iteration      1(   5)  ---------------------------------------


     EDDAV:  cpu time   47.3976: real time   47.8775
       DOS:  cpu time    0.0015: real time    0.0015
    CHARGE:  cpu time    0.9914: real time    1.0063
    MIXING:  cpu time    0.0050: real time    0.0052
    --------------------------------------------
      LOOP:  cpu time   48.3956: real time   48.8905

 eigenvalue-minimisations  : 10120
 total energy-change (2. order) :-0.7186985E+00  (-0.7169230E+00)
 number of electron     444.9999281 magnetization     115.8290907
 augmentation part       11.7786200 magnetization     111.0898508

 Broyden mixing:
  rms(total) = 0.69967E+01    rms(broyden)= 0.69943E+01
  rms(prec ) = 0.70755E+01
  weight for this iteration     100.00

 Free energy of the ion-electron system (eV)
  ---------------------------------------------------
  alpha Z        PSCENC =       131.99278517
  Ewald energy   TEWEN  =    184076.53955715
  -Hartree energ DENC   =   -195401.68220318
  -exchange      EXHF   =         0.00000000
  -V(xc)+E(xc)   XCENC  =      1469.36114767
  PAW double counting   =     11735.59191605   -11790.67375283
  entropy T*S    EENTRO =        -0.02351543
  eigenvalues    EBANDS =     -7317.85344627
  atomic energy  EATOM  =     16044.78385898
  Solvation  Ediel_sol  =         0.00000000
  ---------------------------------------------------
  free energy    TOTEN  =     -1051.96365268 eV

  energy without entropy =    -1051.94013726  energy(sigma->0) =    -1051.95189497


--------------------------------------------------------------------------------------------------------




--------------------------------------- Iteration      1(   6)  ---------------------------------------


    POTLOK:  cpu time    0.2501: real time    0.2514
    SETDIJ:  cpu time    0.0179: real time    0.0179
     EDDAV:  cpu time   38.5760: real time   38.9689
       DOS:  cpu time    0.0032: real time    0.0032
    CHARGE:  cpu time    0.8878: real time    0.8981
    MIXING:  cpu time    0.0086: real time    0.0087
    --------------------------------------------
      LOOP:  cpu time   39.7436: real time   40.1482

 eigenvalue-minimisations  :  8040
 total energy-change (2. order) : 0.3664633E+03  (-0.6067702E+02)
 number of electron     444.9999317 magnetization     109.6899440
 augmentation part       11.6421432 magnetization     103.3726103

 Broyden mixing:
  rms(total) = 0.41795E+01    rms(broyden)= 0.41789E+01
  rms(prec ) = 0.42390E+01
  weight for this iteration     100.00

 eigenvalues of (default mixing * dielectric matrix)
  average eigenvalue GAMMA=   1.0101
  1.0101

 Free energy of the ion-electron system (eV)
  ---------------------------------------------------
  alpha Z        PSCENC =       131.99278517
  Ewald energy   TEWEN  =    184076.53955715
  -Hartree energ DENC   =   -196223.10996781
  -exchange      EXHF   =         0.00000000
  -V(xc)+E(xc)   XCENC  =      1727.35432414
  PAW double counting   =     21866.38461463   -21930.43514771
  entropy T*S    EENTRO =        -0.03357985
  eigenvalues    EBANDS =     -6378.97684182
  atomic energy  EATOM  =     16044.78385898
  Solvation  Ediel_sol  =         0.00000000
  ---------------------------------------------------
  free energy    TOTEN  =      -685.50039712 eV

  energy without entropy =     -685.46681726  energy(sigma->0) =     -685.48360719


--------------------------------------------------------------------------------------------------------




--------------------------------------- Iteration      1(   7)  ---------------------------------------


    POTLOK:  cpu time    0.2467: real time    0.2500
    SETDIJ:  cpu time    0.0191: real time    0.0192
     EDDAV:  cpu time   40.8853: real time   41.2960
       DOS:  cpu time    0.0028: real time    0.0028
    CHARGE:  cpu time    0.8276: real time    0.8343
    MIXING:  cpu time    0.0064: real time    0.0064
    --------------------------------------------
      LOOP:  cpu time   41.9878: real time   42.4087

 eigenvalue-minimisations  :  8300
 total energy-change (2. order) :-0.3701050E+02  (-0.6665421E+01)
 number of electron     444.9999333 magnetization     101.0749595
 augmentation part       11.2636459 magnetization      94.1858214

 Broyden mixing:
  rms(total) = 0.28892E+01    rms(broyden)= 0.28889E+01
  rms(prec ) = 0.29059E+01
  weight for this iteration     100.00

 eigenvalues of (default mixing * dielectric matrix)
  average eigenvalue GAMMA=   1.2904
  0.8122  1.7686

 Free energy of the ion-electron system (eV)
  ---------------------------------------------------
  alpha Z        PSCENC =       131.99278517
  Ewald energy   TEWEN  =    184076.53955715
  -Hartree energ DENC   =   -197012.48467729
  -exchange      EXHF   =         0.00000000
  -V(xc)+E(xc)   XCENC  =      1702.87059408
  PAW double counting   =     32781.16049390   -32850.33620154
  entropy T*S    EENTRO =        -0.02305935
  eigenvalues    EBANDS =     -5597.01425063
  atomic energy  EATOM  =     16044.78385898
  Solvation  Ediel_sol  =         0.00000000
  ---------------------------------------------------
  free energy    TOTEN  =      -722.51089953 eV

  energy without entropy =     -722.48784018  energy(sigma->0) =     -722.49936985


--------------------------------------------------------------------------------------------------------




--------------------------------------- Iteration      1(   8)  ---------------------------------------


    POTLOK:  cpu time    0.2337: real time    0.2360
    SETDIJ:  cpu time    0.0189: real time    0.0190
     EDDAV:  cpu time   39.9971: real time   40.4428
       DOS:  cpu time    0.0028: real time    0.0028
    CHARGE:  cpu time    0.8391: real time    0.8511
    MIXING:  cpu time    0.0078: real time    0.0079
    --------------------------------------------
      LOOP:  cpu time   41.0995: real time   41.5596

 eigenvalue-minimisations  :  8210
 total energy-change (2. order) :-0.3809570E+02  (-0.3627332E+01)
 number of electron     444.9999344 magnetization      94.5030699
 augmentation part       10.9058752 magnetization      87.8888204

 Broyden mixing:
  rms(total) = 0.20180E+01    rms(broyden)= 0.20178E+01
  rms(prec ) = 0.20212E+01
  weight for this iteration     100.00

 eigenvalues of (default mixing * dielectric matrix)
  average eigenvalue GAMMA=   1.3668
  2.3820  1.0243  0.6939

 Free energy of the ion-electron system (eV)
  ---------------------------------------------------
  alpha Z        PSCENC =       131.99278517
  Ewald energy   TEWEN  =    184076.53955715
  -Hartree energ DENC   =   -197592.25248666
  -exchange      EXHF   =         0.00000000
  -V(xc)+E(xc)   XCENC  =      1695.86887677
  PAW double counting   =     45221.89622088   -45293.63531542
  entropy T*S    EENTRO =        -0.02655949
  eigenvalues    EBANDS =     -5045.77354053
  atomic energy  EATOM  =     16044.78385898
  Solvation  Ediel_sol  =         0.00000000
  ---------------------------------------------------
  free energy    TOTEN  =      -760.60660314 eV

  energy without entropy =     -760.58004365  energy(sigma->0) =     -760.59332340


--------------------------------------------------------------------------------------------------------




--------------------------------------- Iteration      1(   9)  ---------------------------------------


    POTLOK:  cpu time    0.2363: real time    0.2413
    SETDIJ:  cpu time    0.0168: real time    0.0169
     EDDAV:  cpu time   39.5031: real time   39.8972
       DOS:  cpu time    0.0030: real time    0.0030
    CHARGE:  cpu time    0.8378: real time    0.8450
    MIXING:  cpu time    0.0077: real time    0.0077
    --------------------------------------------
      LOOP:  cpu time   40.6047: real time   41.0110

 eigenvalue-minimisations  :  8240
 total energy-change (2. order) :-0.4283181E+02  (-0.1197596E+01)
 number of electron     444.9999346 magnetization      83.7118385
 augmentation part       10.7974471 magnetization      77.6828037

 Broyden mixing:
  rms(total) = 0.16855E+01    rms(broyden)= 0.16854E+01
  rms(prec ) = 0.16885E+01
  weight for this iteration     100.00

 eigenvalues of (default mixing * dielectric matrix)
  average eigenvalue GAMMA=   1.4363
  2.6238  1.6052  0.8539  0.6624

 Free energy of the ion-electron system (eV)
  ---------------------------------------------------
  alpha Z        PSCENC =       131.99278517
  Ewald energy   TEWEN  =    184076.53955715
  -Hartree energ DENC   =   -197705.54735354
  -exchange      EXHF   =         0.00000000
  -V(xc)+E(xc)   XCENC  =      1673.55307154
  PAW double counting   =     48971.99219188   -49042.81288210
  entropy T*S    EENTRO =        -0.00708516
  eigenvalues    EBANDS =     -4953.93255561
  atomic energy  EATOM  =     16044.78385898
  Solvation  Ediel_sol  =         0.00000000
  ---------------------------------------------------
  free energy    TOTEN  =      -803.43841169 eV

  energy without entropy =     -803.43132652  energy(sigma->0) =     -803.43486910


--------------------------------------------------------------------------------------------------------




--------------------------------------- Iteration      1(  10)  ---------------------------------------


    POTLOK:  cpu time    0.2247: real time    0.2260
    SETDIJ:  cpu time    0.0179: real time    0.0180
     EDDAV:  cpu time   38.1482: real time   38.5319
       DOS:  cpu time    0.0031: real time    0.0031
    CHARGE:  cpu time    0.8361: real time    0.8424
    MIXING:  cpu time    0.0077: real time    0.0077
    --------------------------------------------
      LOOP:  cpu time   39.2375: real time   39.6290

 eigenvalue-minimisations  :  7800
 total energy-change (2. order) :-0.7710640E+02  (-0.3708001E+01)
 number of electron     444.9999341 magnetization      72.2138906
 augmentation part       10.7455197 magnetization      66.6375238

 Broyden mixing:
  rms(total) = 0.13135E+01    rms(broyden)= 0.13133E+01
  rms(prec ) = 0.13147E+01
  weight for this iteration     100.00

 eigenvalues of (default mixing * dielectric matrix)
  average eigenvalue GAMMA=   1.5751
  3.1059  2.3710  0.9613  0.8164  0.6211

 Free energy of the ion-electron system (eV)
  ---------------------------------------------------
  alpha Z        PSCENC =       131.99278517
  Ewald energy   TEWEN  =    184076.53955715
  -Hartree energ DENC   =   -197753.31246654
  -exchange      EXHF   =         0.00000000
  -V(xc)+E(xc)   XCENC  =      1626.59899771
  PAW double counting   =     50544.77225492   -50613.14478802
  entropy T*S    EENTRO =        -0.01536754
  eigenvalues    EBANDS =     -4938.75964830
  atomic energy  EATOM  =     16044.78385898
  Solvation  Ediel_sol  =         0.00000000
  ---------------------------------------------------
  free energy    TOTEN  =      -880.54481646 eV

  energy without entropy =     -880.52944892  energy(sigma->0) =     -880.53713269


--------------------------------------------------------------------------------------------------------




--------------------------------------- Iteration      1(  11)  ---------------------------------------


    POTLOK:  cpu time    0.2211: real time    0.2223
    SETDIJ:  cpu time    0.0214: real time    0.0218
     EDDAV:  cpu time   39.5833: real time   39.9699
       DOS:  cpu time    0.0044: real time    0.0045
    CHARGE:  cpu time    0.8354: real time    0.8440
    MIXING:  cpu time    0.0076: real time    0.0077
    --------------------------------------------
      LOOP:  cpu time   40.6732: real time   41.0701

 eigenvalue-minimisations  :  7930
 total energy-change (2. order) :-0.5869882E+02  (-0.3434663E+01)
 number of electron     444.9999337 magnetization      57.9335254
 augmentation part       10.6889574 magnetization      53.0133082

 Broyden mixing:
  rms(total) = 0.10304E+01    rms(broyden)= 0.10303E+01
  rms(prec ) = 0.10315E+01
  weight for this iteration     100.00

 eigenvalues of (default mixing * dielectric matrix)
  average eigenvalue GAMMA=   1.7352
  4.1272  2.5509  1.4205  0.9611  0.7362  0.6152

 Free energy of the ion-electron system (eV)
  ---------------------------------------------------
  alpha Z        PSCENC =       131.99278517
  Ewald energy   TEWEN  =    184076.53955715
  -Hartree energ DENC   =   -197775.87821133
  -exchange      EXHF   =         0.00000000
  -V(xc)+E(xc)   XCENC  =      1589.86749491
  PAW double counting   =     49941.62976097   -50008.82097211
  entropy T*S    EENTRO =        -0.01530566
  eigenvalues    EBANDS =     -4939.34260901
  atomic energy  EATOM  =     16044.78385898
  Solvation  Ediel_sol  =         0.00000000
  ---------------------------------------------------
  free energy    TOTEN  =      -939.24364092 eV

  energy without entropy =     -939.22833526  energy(sigma->0) =     -939.23598809


--------------------------------------------------------------------------------------------------------




--------------------------------------- Iteration      1(  12)  ---------------------------------------


    POTLOK:  cpu time    0.2171: real time    0.2189
    SETDIJ:  cpu time    0.0217: real time    0.0220
     EDDAV:  cpu time   37.6375: real time   37.9522
       DOS:  cpu time    0.0040: real time    0.0041
    CHARGE:  cpu time    0.8388: real time    0.8475
    MIXING:  cpu time    0.0064: real time    0.0064
    --------------------------------------------
      LOOP:  cpu time   38.7254: real time   39.0511

 eigenvalue-minimisations  :  7620
 total energy-change (2. order) :-0.4842649E+02  (-0.4475372E+01)
 number of electron     444.9999332 magnetization      45.1155186
 augmentation part       10.5951875 magnetization      40.6760611

 Broyden mixing:
  rms(total) = 0.69733E+00    rms(broyden)= 0.69713E+00
  rms(prec ) = 0.69893E+00
  weight for this iteration     100.00

 eigenvalues of (default mixing * dielectric matrix)
  average eigenvalue GAMMA=   2.2136
  7.6400  2.5988  2.0304  1.0645  0.8503  0.7036  0.6075

 Free energy of the ion-electron system (eV)
  ---------------------------------------------------
  alpha Z        PSCENC =       131.99278517
  Ewald energy   TEWEN  =    184076.53955715
  -Hartree energ DENC   =   -197782.00519773
  -exchange      EXHF   =         0.00000000
  -V(xc)+E(xc)   XCENC  =      1559.73401322
  PAW double counting   =     47585.18007809   -47652.64309675
  entropy T*S    EENTRO =        -0.00656668
  eigenvalues    EBANDS =     -4951.24556441
  atomic energy  EATOM  =     16044.78385898
  Solvation  Ediel_sol  =         0.00000000
  ---------------------------------------------------
  free energy    TOTEN  =      -987.67013296 eV

  energy without entropy =     -987.66356628  energy(sigma->0) =     -987.66684962


--------------------------------------------------------------------------------------------------------




--------------------------------------- Iteration      1(  13)  ---------------------------------------


    POTLOK:  cpu time    0.2232: real time    0.2342
    SETDIJ:  cpu time    0.0215: real time    0.0216
     EDDAV:  cpu time   39.4263: real time   39.8189
       DOS:  cpu time    0.0042: real time    0.0043
    CHARGE:  cpu time    0.8569: real time    0.8623
    MIXING:  cpu time    0.0083: real time    0.0084
    --------------------------------------------
      LOOP:  cpu time   40.5404: real time   40.9498

 eigenvalue-minimisations  :  8050
 total energy-change (2. order) :-0.1892227E+02  (-0.1633987E+01)
 number of electron     444.9999330 magnetization      40.6577149
 augmentation part       10.5616740 magnetization      36.5276711

 Broyden mixing:
  rms(total) = 0.51633E+00    rms(broyden)= 0.51617E+00
  rms(prec ) = 0.51856E+00
  weight for this iteration     100.00

 eigenvalues of (default mixing * dielectric matrix)
  average eigenvalue GAMMA=   2.2997
  9.3898  2.4143  2.4143  1.0593  1.0593  0.7781  0.6725  0.6101

 Free energy of the ion-electron system (eV)
  ---------------------------------------------------
  alpha Z        PSCENC =       131.99278517
  Ewald energy   TEWEN  =    184076.53955715
  -Hartree energ DENC   =   -197753.29891530
  -exchange      EXHF   =         0.00000000
  -V(xc)+E(xc)   XCENC  =      1545.31490874
  PAW double counting   =     46059.40381058   -46127.13361705
  entropy T*S    EENTRO =        -0.01669890
  eigenvalues    EBANDS =     -4984.17809409
  atomic energy  EATOM  =     16044.78385898
  Solvation  Ediel_sol  =         0.00000000
  ---------------------------------------------------
  free energy    TOTEN  =     -1006.59240472 eV

  energy without entropy =    -1006.57570582  energy(sigma->0) =    -1006.58405527


--------------------------------------------------------------------------------------------------------




--------------------------------------- Iteration      1(  14)  ---------------------------------------


    POTLOK:  cpu time    0.2281: real time    0.2293
    SETDIJ:  cpu time    0.0207: real time    0.0208
     EDDAV:  cpu time   38.7913: real time   39.2294
       DOS:  cpu time    0.0047: real time    0.0048
    CHARGE:  cpu time    0.8653: real time    0.8725
    MIXING:  cpu time    0.0068: real time    0.0068
    --------------------------------------------
      LOOP:  cpu time   39.9169: real time   40.3636

 eigenvalue-minimisations  :  7940
 total energy-change (2. order) :-0.5383104E+01  (-0.7731792E-01)
 number of electron     444.9999331 magnetization      33.5194702
 augmentation part       10.5423045 magnetization      29.4508733

 Broyden mixing:
  rms(total) = 0.45350E+00    rms(broyden)= 0.45347E+00
  rms(prec ) = 0.45513E+00
  weight for this iteration     100.00

 eigenvalues of (default mixing * dielectric matrix)
  average eigenvalue GAMMA=   2.2896
 10.1305  2.5255  2.5255  1.3955  0.9959  0.9959  0.7625  0.6637  0.6114

 Free energy of the ion-electron system (eV)
  ---------------------------------------------------
  alpha Z        PSCENC =       131.99278517
  Ewald energy   TEWEN  =    184076.53955715
  -Hartree energ DENC   =   -197730.12387268
  -exchange      EXHF   =         0.00000000
  -V(xc)+E(xc)   XCENC  =      1540.27078367
  PAW double counting   =     46308.11813895   -46376.09710641
  entropy T*S    EENTRO =        -0.01859045
  eigenvalues    EBANDS =     -5007.44106343
  atomic energy  EATOM  =     16044.78385898
  Solvation  Ediel_sol  =         0.00000000
  ---------------------------------------------------
  free energy    TOTEN  =     -1011.97550905 eV

  energy without entropy =    -1011.95691860  energy(sigma->0) =    -1011.96621383


--------------------------------------------------------------------------------------------------------




--------------------------------------- Iteration      1(  15)  ---------------------------------------


    POTLOK:  cpu time    0.2177: real time    0.2190
    SETDIJ:  cpu time    0.0213: real time    0.0214
     EDDAV:  cpu time   38.5593: real time   38.9404
       DOS:  cpu time    0.0042: real time    0.0044
    CHARGE:  cpu time    0.9030: real time    0.9134
    MIXING:  cpu time    0.0089: real time    0.0089
    --------------------------------------------
      LOOP:  cpu time   39.7144: real time   40.1075

 eigenvalue-minimisations  :  7710
 total energy-change (2. order) :-0.4899288E+01  (-0.6334767E-01)
 number of electron     444.9999331 magnetization      25.7911022
 augmentation part       10.5511587 magnetization      21.8971273

 Broyden mixing:
  rms(total) = 0.37362E+00    rms(broyden)= 0.37362E+00
  rms(prec ) = 0.37478E+00
  weight for this iteration     100.00

 eigenvalues of (default mixing * dielectric matrix)
  average eigenvalue GAMMA=   2.3764
 10.8963  3.3095  2.3959  2.1963  1.0831  1.0831  0.7828  0.7475  0.6132  0.6563

 Free energy of the ion-electron system (eV)
  ---------------------------------------------------
  alpha Z        PSCENC =       131.99278517
  Ewald energy   TEWEN  =    184076.53955715
  -Hartree energ DENC   =   -197642.39366824
  -exchange      EXHF   =         0.00000000
  -V(xc)+E(xc)   XCENC  =      1534.20013563
  PAW double counting   =     46185.84068869   -46253.87864880
  entropy T*S    EENTRO =        -0.02889486
  eigenvalues    EBANDS =     -5093.93061087
  atomic energy  EATOM  =     16044.78385898
  Solvation  Ediel_sol  =         0.00000000
  ---------------------------------------------------
  free energy    TOTEN  =     -1016.87479714 eV

  energy without entropy =    -1016.84590228  energy(sigma->0) =    -1016.86034971


--------------------------------------------------------------------------------------------------------




--------------------------------------- Iteration      1(  16)  ---------------------------------------


    POTLOK:  cpu time    0.2369: real time    0.2383
    SETDIJ:  cpu time    0.0189: real time    0.0190
     EDDAV:  cpu time   38.2675: real time   38.6720
       DOS:  cpu time    0.0037: real time    0.0037
    CHARGE:  cpu time    0.8426: real time    0.8489
    MIXING:  cpu time    0.0115: real time    0.0116
    --------------------------------------------
      LOOP:  cpu time   39.3810: real time   39.7934

 eigenvalue-minimisations  :  7570
 total energy-change (2. order) :-0.4899616E+01  (-0.4955334E-01)
 number of electron     444.9999331 magnetization      16.8721155
 augmentation part       10.5510162 magnetization      12.9263984

 Broyden mixing:
  rms(total) = 0.29091E+00    rms(broyden)= 0.29091E+00
  rms(prec ) = 0.29186E+00
  weight for this iteration     100.00

 eigenvalues of (default mixing * dielectric matrix)
  average eigenvalue GAMMA=   2.4471
 11.5980  4.4573  2.4109  2.4109  1.1054  1.1054  1.0494  0.7592  0.7592  0.6149
  0.6476

 Free energy of the ion-electron system (eV)
  ---------------------------------------------------
  alpha Z        PSCENC =       131.99278517
  Ewald energy   TEWEN  =    184076.53955715
  -Hartree energ DENC   =   -197576.90111414
  -exchange      EXHF   =         0.00000000
  -V(xc)+E(xc)   XCENC  =      1528.52440464
  PAW double counting   =     46326.51119325   -46394.47606611
  entropy T*S    EENTRO =        -0.02666075
  eigenvalues    EBANDS =     -5158.72237177
  atomic energy  EATOM  =     16044.78385898
  Solvation  Ediel_sol  =         0.00000000
  ---------------------------------------------------
  free energy    TOTEN  =     -1021.77441358 eV

  energy without entropy =    -1021.74775283  energy(sigma->0) =    -1021.76108320


--------------------------------------------------------------------------------------------------------




--------------------------------------- Iteration      1(  17)  ---------------------------------------


    POTLOK:  cpu time    0.2296: real time    0.2310
    SETDIJ:  cpu time    0.0212: real time    0.0213
     EDDAV:  cpu time   37.4054: real time   37.7951
       DOS:  cpu time    0.0035: real time    0.0035
    CHARGE:  cpu time    0.8280: real time    0.8360
    MIXING:  cpu time    0.0110: real time    0.0111
    --------------------------------------------
      LOOP:  cpu time   38.4987: real time   38.8980

 eigenvalue-minimisations  :  7680
 total energy-change (2. order) :-0.3708870E+01  (-0.3459884E-01)
 number of electron     444.9999331 magnetization      10.2884389
 augmentation part       10.5487426 magnetization       6.2828135

 Broyden mixing:
  rms(total) = 0.19471E+00    rms(broyden)= 0.19471E+00
  rms(prec ) = 0.19606E+00
  weight for this iteration     100.00

 eigenvalues of (default mixing * dielectric matrix)
  average eigenvalue GAMMA=   2.6971
 13.1832  6.5401  2.5430  2.5430  1.7629  1.1048  1.1048  0.8443  0.7412  0.7412
  0.6159  0.6403

 Free energy of the ion-electron system (eV)
  ---------------------------------------------------
  alpha Z        PSCENC =       131.99278517
  Ewald energy   TEWEN  =    184076.53955715
  -Hartree energ DENC   =   -197517.09589076
  -exchange      EXHF   =         0.00000000
  -V(xc)+E(xc)   XCENC  =      1524.68956994
  PAW double counting   =     46717.63776064   -46785.47701661
  entropy T*S    EENTRO =        -0.01958400
  eigenvalues    EBANDS =     -5218.53432448
  atomic energy  EATOM  =     16044.78385898
  Solvation  Ediel_sol  =         0.00000000
  ---------------------------------------------------
  free energy    TOTEN  =     -1025.48328397 eV

  energy without entropy =    -1025.46369997  energy(sigma->0) =    -1025.47349197


--------------------------------------------------------------------------------------------------------




--------------------------------------- Iteration      1(  18)  ---------------------------------------


    POTLOK:  cpu time    0.2228: real time    0.2255
    SETDIJ:  cpu time    0.0203: real time    0.0205
     EDDAV:  cpu time   36.5045: real time   36.8418
       DOS:  cpu time    0.0037: real time    0.0037
    CHARGE:  cpu time    0.9186: real time    0.9322
    MIXING:  cpu time    0.0098: real time    0.0099
    --------------------------------------------
      LOOP:  cpu time   37.6796: real time   38.0336

 eigenvalue-minimisations  :  7700
 total energy-change (2. order) :-0.3718755E+01  (-0.2682306E-01)
 number of electron     444.9999331 magnetization       6.8809312
 augmentation part       10.5497446 magnetization       2.8980181

 Broyden mixing:
  rms(total) = 0.11771E+00    rms(broyden)= 0.11771E+00
  rms(prec ) = 0.11985E+00
  weight for this iteration     100.00

 eigenvalues of (default mixing * dielectric matrix)
  average eigenvalue GAMMA=   2.9573
 16.0757  8.2321  2.6599  2.6599  2.0767  1.1323  1.1323  0.9468  0.7927  0.7927
  0.6979  0.6168  0.6287

 Free energy of the ion-electron system (eV)
  ---------------------------------------------------
  alpha Z        PSCENC =       131.99278517
  Ewald energy   TEWEN  =    184076.53955715
  -Hartree energ DENC   =   -197481.43533953
  -exchange      EXHF   =         0.00000000
  -V(xc)+E(xc)   XCENC  =      1521.17872843
  PAW double counting   =     46713.04121751   -46780.90287337
  entropy T*S    EENTRO =        -0.02078330
  eigenvalues    EBANDS =     -5254.37918963
  atomic energy  EATOM  =     16044.78385898
  Solvation  Ediel_sol  =         0.00000000
  ---------------------------------------------------
  free energy    TOTEN  =     -1029.20203858 eV

  energy without entropy =    -1029.18125527  energy(sigma->0) =    -1029.19164692


--------------------------------------------------------------------------------------------------------




--------------------------------------- Iteration      1(  19)  ---------------------------------------


    POTLOK:  cpu time    0.2214: real time    0.2227
    SETDIJ:  cpu time    0.0201: real time    0.0203
     EDDAV:  cpu time   37.4762: real time   37.8598
       DOS:  cpu time    0.0034: real time    0.0035
    CHARGE:  cpu time    0.8404: real time    0.8478
    MIXING:  cpu time    0.0116: real time    0.0116
    --------------------------------------------
      LOOP:  cpu time   38.5730: real time   38.9656

 eigenvalue-minimisations  :  7660
 total energy-change (2. order) :-0.2924928E+01  (-0.1289118E-01)
 number of electron     444.9999331 magnetization       5.2296117
 augmentation part       10.5506988 magnetization       1.3084144

 Broyden mixing:
  rms(total) = 0.70336E-01    rms(broyden)= 0.70330E-01
  rms(prec ) = 0.72546E-01
  weight for this iteration     100.00

 eigenvalues of (default mixing * dielectric matrix)
  average eigenvalue GAMMA=   3.1127
 18.8711  8.9670  2.8433  2.6766  2.2399  1.2683  1.2683  0.9851  0.9851  0.7711
  0.7711  0.6874  0.6160  0.6273

 Free energy of the ion-electron system (eV)
  ---------------------------------------------------
  alpha Z        PSCENC =       131.99278517
  Ewald energy   TEWEN  =    184076.53955715
  -Hartree energ DENC   =   -197477.69697814
  -exchange      EXHF   =         0.00000000
  -V(xc)+E(xc)   XCENC  =      1518.51033538
  PAW double counting   =     46566.47978960   -46634.40379217
  entropy T*S    EENTRO =        -0.02567524
  eigenvalues    EBANDS =     -5258.30684742
  atomic energy  EATOM  =     16044.78385898
  Solvation  Ediel_sol  =         0.00000000
  ---------------------------------------------------
  free energy    TOTEN  =     -1032.12696669 eV

  energy without entropy =    -1032.10129145  energy(sigma->0) =    -1032.11412907


--------------------------------------------------------------------------------------------------------




--------------------------------------- Iteration      1(  20)  ---------------------------------------


    POTLOK:  cpu time    0.2185: real time    0.2217
    SETDIJ:  cpu time    0.0205: real time    0.0207
     EDDAV:  cpu time   39.7990: real time   40.2217
       DOS:  cpu time    0.0034: real time    0.0035
    CHARGE:  cpu time    0.8267: real time    0.8334
    MIXING:  cpu time    0.0091: real time    0.0095
    --------------------------------------------
      LOOP:  cpu time   40.8773: real time   41.3104

 eigenvalue-minimisations  :  8040
 total energy-change (2. order) :-0.1686154E+01  (-0.8439768E-02)
 number of electron     444.9999331 magnetization       4.6491211
 augmentation part       10.5492723 magnetization       0.7573780

 Broyden mixing:
  rms(total) = 0.43772E-01    rms(broyden)= 0.43764E-01
  rms(prec ) = 0.45537E-01
  weight for this iteration     100.00

 eigenvalues of (default mixing * dielectric matrix)
  average eigenvalue GAMMA=   3.1781
 20.9142  9.3411  3.3344  2.4366  2.4366  1.6281  1.1865  1.1865  0.9226  0.8216
  0.8216  0.7359  0.6648  0.6136  0.6274

 Free energy of the ion-electron system (eV)
  ---------------------------------------------------
  alpha Z        PSCENC =       131.99278517
  Ewald energy   TEWEN  =    184076.53955715
  -Hartree energ DENC   =   -197490.47638737
[...]
   0.333E+03 -.167E-01 0.352E+03   -.333E+03 0.188E-01 -.352E+03   0.950E-01 -.503E-03 -.271E-01   0.202E-04 0.103E-04 0.584E-04
   -.152E+03 0.767E-03 0.373E+03   0.152E+03 -.909E-03 -.373E+03   -.121E-01 0.638E-04 -.219E-01   -.504E-04 0.413E-06 -.442E-04
   0.193E+03 -.288E-01 0.374E+03   -.193E+03 0.320E-01 -.374E+03   0.251E-01 0.463E-03 -.231E-01   0.136E-03 -.437E-06 0.600E-04
   -.279E+03 0.742E-02 0.350E+03   0.279E+03 -.650E-02 -.350E+03   -.209E-01 0.217E-03 -.278E-01   0.210E-04 -.211E-06 -.407E-04
   0.528E+03 -.143E-01 0.304E+03   -.529E+03 0.157E-01 -.304E+03   0.411E+00 -.381E-02 -.478E-01   -.286E-03 -.125E-06 0.128E-03
   -.379E+02 -.976E-02 0.382E+03   0.379E+02 0.118E-01 -.382E+03   -.442E-02 -.525E-03 -.207E-01   -.109E-04 0.842E-07 0.652E-05
   0.367E+02 0.598E-02 -.382E+03   -.367E+02 -.674E-02 0.382E+03   -.621E-02 0.651E-03 0.210E-01   -.554E-04 -.254E-05 0.238E-04
   -.530E+03 0.577E-02 -.304E+03   0.531E+03 -.639E-02 0.304E+03   -.454E+00 -.635E-04 0.412E-01   0.217E-03 -.405E-05 -.955E-04
   0.277E+03 0.663E-03 -.351E+03   -.277E+03 0.540E-03 0.351E+03   -.374E-03 0.169E-02 0.242E-01   0.356E-04 -.772E-05 0.404E-04
   -.194E+03 0.978E-03 -.374E+03   0.194E+03 -.109E-02 0.374E+03   -.385E-01 0.185E-04 0.177E-01   -.417E-04 -.398E-05 0.664E-04
   0.151E+03 -.258E-01 -.373E+03   -.151E+03 0.281E-01 0.373E+03   0.371E-02 0.429E-03 0.237E-01   0.548E-04 0.434E-06 0.283E-04
   -.334E+03 0.268E-01 -.352E+03   0.335E+03 -.279E-01 0.352E+03   -.107E+00 0.172E-02 0.264E-01   0.716E-04 0.693E-06 0.270E-04
   0.430E+03 -.531E-02 -.305E+03   -.430E+03 0.551E-02 0.305E+03   0.464E-01 -.447E-03 0.359E-01   -.205E-03 -.961E-06 0.965E-05
   -.752E+02 -.288E-01 -.383E+03   0.752E+02 0.299E-01 0.383E+03   -.145E-01 -.454E-03 0.195E-01   -.907E-04 -.157E-07 0.464E-04
   0.367E+02 0.297E-02 -.382E+03   -.367E+02 -.161E-02 0.382E+03   -.481E-03 0.654E-03 0.225E-01   -.467E-04 -.576E-06 0.232E-04
   -.531E+03 -.533E-02 -.303E+03   0.531E+03 0.543E-02 0.303E+03   -.457E+00 -.275E-02 0.449E-01   0.236E-03 0.784E-07 -.948E-04
   0.277E+03 0.623E-02 -.350E+03   -.277E+03 -.556E-02 0.350E+03   -.290E-03 0.800E-03 0.291E-01   0.457E-04 -.296E-06 0.402E-04
   -.194E+03 -.276E-01 -.374E+03   0.194E+03 0.310E-01 0.374E+03   -.345E-01 0.518E-03 0.228E-01   -.256E-04 0.121E-06 0.662E-04
   0.151E+03 0.339E-01 -.373E+03   -.151E+03 -.368E-01 0.373E+03   0.378E-02 -.478E-03 0.238E-01   0.620E-04 0.197E-05 0.273E-04
   -.334E+03 -.257E-01 -.352E+03   0.335E+03 0.265E-01 0.352E+03   -.108E+00 -.169E-02 0.265E-01   0.652E-04 -.620E-06 0.265E-04
   0.430E+03 0.513E-01 -.305E+03   -.430E+03 -.521E-01 0.305E+03   0.374E-01 0.311E-02 0.395E-01   -.158E-03 -.101E-04 0.845E-05
   -.752E+02 0.185E-01 -.383E+03   0.752E+02 -.195E-01 0.383E+03   -.140E-01 -.299E-03 0.194E-01   -.961E-04 0.629E-06 0.454E-04
   0.368E+02 -.512E-02 -.382E+03   -.368E+02 0.296E-02 0.382E+03   -.228E-03 0.601E-03 0.226E-01   -.549E-04 0.312E-05 0.238E-04
   -.531E+03 0.131E-01 -.303E+03   0.531E+03 -.142E-01 0.303E+03   -.458E+00 0.295E-02 0.449E-01   0.218E-03 0.400E-05 -.953E-04
   0.277E+03 -.766E-03 -.350E+03   -.277E+03 -.884E-03 0.350E+03   0.116E-02 -.121E-02 0.291E-01   0.349E-04 0.795E-05 0.405E-04
   -.194E+03 0.201E-01 -.374E+03   0.194E+03 -.224E-01 0.374E+03   -.345E-01 -.639E-03 0.229E-01   -.415E-04 0.386E-05 0.667E-04
   0.151E+03 0.274E-02 -.373E+03   -.151E+03 -.302E-02 0.373E+03   0.118E-02 -.187E-03 0.222E-01   0.621E-04 -.237E-05 0.273E-04
   -.334E+03 0.341E-03 -.352E+03   0.335E+03 -.712E-05 0.352E+03   -.110E+00 0.209E-03 0.266E-01   0.646E-04 -.950E-07 0.268E-04
   0.430E+03 -.496E-01 -.305E+03   -.430E+03 0.506E-01 0.305E+03   0.410E-01 -.379E-02 0.389E-01   -.160E-03 0.110E-04 0.847E-05
   -.752E+02 -.182E-02 -.382E+03   0.752E+02 0.172E-02 0.382E+03   -.151E-01 -.792E-03 0.197E-01   -.961E-04 -.623E-06 0.456E-04
   0.554E+03 0.784E-02 -.254E+03   -.554E+03 -.735E-02 0.253E+03   0.347E+00 0.237E-02 0.417E-01   -.437E-03 -.345E-05 -.500E-04
   0.554E+03 -.153E+00 -.254E+03   -.554E+03 0.175E+00 0.253E+03   0.338E+00 -.150E-01 0.373E-01   -.395E-03 0.957E-04 -.492E-04
   0.554E+03 0.149E+00 -.254E+03   -.554E+03 -.171E+00 0.254E+03   0.332E+00 0.122E-01 0.371E-01   -.394E-03 -.923E-04 -.491E-04
   -.556E+03 0.553E-02 0.253E+03   0.557E+03 -.528E-02 -.253E+03   -.392E+00 0.312E-02 -.395E-01   0.243E-03 0.219E-06 0.115E-03
   -.556E+03 -.111E-02 0.253E+03   0.557E+03 0.152E-02 -.253E+03   -.395E+00 0.118E-02 -.434E-01   0.250E-03 -.130E-06 0.114E-03
   -.556E+03 -.666E-02 0.253E+03   0.557E+03 0.749E-02 -.253E+03   -.392E+00 -.179E-02 -.396E-01   0.250E-03 -.122E-06 0.114E-03
   0.654E+03 -.270E+00 -.224E+03   -.655E+03 0.282E+00 0.224E+03   0.948E+00 -.130E-01 0.120E-02   -.183E-03 0.525E-04 -.101E-03
   0.654E+03 -.289E-01 -.224E+03   -.655E+03 0.307E-01 0.224E+03   0.916E+00 0.850E-03 -.321E-01   -.207E-03 0.205E-05 -.950E-04
   0.654E+03 0.302E+00 -.224E+03   -.655E+03 -.317E+00 0.224E+03   0.944E+00 0.124E-01 -.316E-02   -.184E-03 -.547E-04 -.101E-03
   -.657E+03 0.820E-02 0.222E+03   0.658E+03 -.950E-02 -.222E+03   -.103E+01 -.121E-02 -.198E-01   0.186E-03 0.250E-05 0.157E-03
   -.657E+03 -.130E-01 0.222E+03   0.658E+03 0.129E-01 -.222E+03   -.103E+01 -.437E-03 -.195E-01   0.190E-03 0.261E-06 0.156E-03
   -.657E+03 0.820E-02 0.222E+03   0.658E+03 -.831E-02 -.222E+03   -.103E+01 0.762E-03 -.197E-01   0.186E-03 -.275E-05 0.157E-03
   0.199E+03 -.213E-01 0.576E+02   -.205E+03 0.232E-01 -.575E+02   0.566E+01 -.533E-02 -.838E-01   -.673E-04 -.193E-06 0.565E-04
   0.199E+03 -.117E+00 0.577E+02   -.205E+03 0.120E+00 -.576E+02   0.565E+01 -.224E-02 -.825E-01   -.780E-04 0.132E-04 0.597E-04
   0.199E+03 0.139E+00 0.577E+02   -.205E+03 -.143E+00 -.576E+02   0.565E+01 0.751E-02 -.816E-01   -.781E-04 -.131E-04 0.597E-04
   -.200E+03 -.193E-01 -.574E+02   0.206E+03 0.212E-01 0.573E+02   -.567E+01 -.462E-02 0.828E-01   0.829E-06 0.115E-07 -.606E-04
   -.200E+03 0.154E-03 -.574E+02   0.206E+03 -.225E-03 0.573E+02   -.567E+01 -.334E-04 0.830E-01   0.168E-05 0.390E-07 -.607E-04
   -.200E+03 0.184E-01 -.574E+02   0.206E+03 -.202E-01 0.573E+02   -.567E+01 0.457E-02 0.828E-01   0.166E-05 -.599E-07 -.606E-04
   0.198E+03 -.199E+00 -.438E+02   -.203E+03 0.205E+00 0.439E+02   0.565E+01 -.738E-02 -.473E-01   0.147E-04 0.688E-05 -.614E-04
   0.197E+03 0.103E-01 -.441E+02   -.203E+03 -.118E-01 0.441E+02   0.562E+01 0.303E-02 -.563E-01   -.335E-04 0.104E-06 -.635E-04
   0.198E+03 0.186E+00 -.438E+02   -.203E+03 -.190E+00 0.439E+02   0.564E+01 0.361E-02 -.433E-01   0.133E-04 -.703E-05 -.613E-04
   -.198E+03 0.189E-02 0.431E+02   0.204E+03 -.194E-02 -.431E+02   -.566E+01 0.331E-03 0.232E-01   -.429E-04 0.453E-06 0.525E-04
   -.198E+03 0.137E-01 0.431E+02   0.204E+03 -.152E-01 -.431E+02   -.567E+01 0.337E-02 0.267E-01   -.420E-04 0.892E-07 0.525E-04
   -.198E+03 -.128E-01 0.431E+02   0.204E+03 0.143E-01 -.431E+02   -.567E+01 -.308E-02 0.266E-01   -.428E-04 -.541E-06 0.525E-04
   0.954E+02 -.216E-03 0.320E+01   -.954E+02 0.642E-04 -.319E+01   0.108E-01 -.208E-03 -.158E-01   0.412E-03 -.494E-07 0.124E-04
 -----------------------------------------------------------------------------------------------
   0.153E+01 -.284E-03 0.179E+00   -.169E-11 0.218E-12 0.410E-12   -.157E+01 -.100E-01 -.208E+00   0.524E-03 -.102E-05 0.264E-02


 POSITION                                       TOTAL-FORCE (eV/Angst)
 -----------------------------------------------------------------------------------
     18.53296      6.12896     12.13953         0.001249      0.005792      0.000975
     27.10306      6.12874     15.66412         0.005769      0.003730     -0.000878
     14.25267      6.12897     12.12929        -0.001479      0.002918      0.001721
     22.81485      6.12901     12.14286        -0.000352      0.002468      0.002642
     16.39274      4.90329     12.13610        -0.000817     -0.003752     -0.000557
     24.95788      4.90326     12.13714         0.001478     -0.000954      0.000728
     12.11282      4.90328     12.12680         0.004613     -0.005279      0.000750
     20.67358      4.90334     12.14241         0.002435     -0.005675     -0.001483
     18.53294      1.22608     12.13954         0.001995     -0.006324      0.000944
     27.10306      1.22544     15.66411         0.006030     -0.001690     -0.001059
     14.25267      1.22597     12.12930        -0.001345     -0.000928      0.001791
     22.81485      1.22606     12.14288        -0.000551     -0.004520      0.002303
     16.39279      0.00014     12.13528        -0.000958      0.000881      0.001180
     24.95774      0.00016     12.13679         0.001989      0.001307      0.002914
     12.11321      0.00014     12.12661        -0.000299      0.002160      0.001394
     20.67354      0.00016     12.14157         0.001094      0.000787      0.003064
     18.53296      3.67748     12.14037         0.002250      0.001464     -0.001139
     27.10342      3.67709     15.66427         0.005664      0.000502     -0.003558
     14.25244      3.67746     12.12996         0.004028     -0.000090     -0.000397
     22.81495      3.67752     12.14343        -0.003900      0.000573      0.000017
     16.39276      2.45167     12.13613        -0.002334      0.003155     -0.000784
     24.95791      2.45179     12.13716         0.000467     -0.000599      0.000543
     12.11282      2.45163     12.12678         0.004881      0.003348      0.001323
     20.67359      2.45162     12.14238         0.002206      0.007689     -0.001113
      9.98677      6.12907     12.13704        -0.000802      0.004256      0.001652
     18.55647      6.12846     15.66142        -0.002605      0.006349     -0.002028
     14.27431      6.12862     15.66124        -0.000696      0.000063     -0.002138
     22.83697      6.12861     15.67062        -0.001144      0.001260      0.001774
     16.41565      4.90287     15.65905        -0.001573     -0.003293     -0.000085
     24.97696      4.90292     15.67407        -0.002812     -0.002438     -0.001279
     12.13135      4.90287     15.66850        -0.007204      0.000052     -0.001323
     20.69683      4.90292     15.66486        -0.002214     -0.003614      0.000693
      9.98672      1.22584     12.13708         0.015227     -0.002654      0.001230
     18.55646      1.22561     15.66144        -0.002280     -0.006337     -0.002132
     14.27431      1.22558     15.66128        -0.001132     -0.001825     -0.002747
     22.83696      1.22562     15.67063        -0.000892     -0.000693      0.001758
     16.41572      7.35440     15.65994        -0.002052     -0.001616     -0.004224
     24.97647      7.35444     15.67424         0.006008      0.000204     -0.000763
     12.13149      7.35444     15.66897        -0.007384     -0.001592     -0.001691
     20.69679      7.35444     15.66564         0.000812      0.000296     -0.001481
      9.98633      3.67746     12.13688         0.019398     -0.001410      0.003621
     18.55639      3.67703     15.66072        -0.001494      0.000005     -0.000641
     14.27428      3.67707     15.66077         0.001399      0.001631     -0.002967
     22.83711      3.67714     15.67030        -0.005587     -0.001410      0.000172
     16.41567      2.45124     15.65904        -0.002293      0.002849      0.000226
     24.97695      2.45132     15.67407        -0.002759      0.002684     -0.001356
     12.13132      2.45141     15.66852        -0.004153     -0.001163     -0.001719
     20.69684      2.45131     15.66485        -0.003160      0.003720      0.000865
     17.10603      6.12899     12.13699         0.000663      0.001618     -0.000573
     25.66756      6.12902     12.13296         0.001559      0.001199      0.001310
     12.82252      6.12894     12.12642        -0.000960      0.001306     -0.000625
     21.38701      6.12904     12.14236        -0.002641      0.000985      0.001643
     14.96511      4.90326     12.13158        -0.003703     -0.003787      0.000052
     23.52751      4.90330     12.14207         0.001100     -0.001697      0.000334
     10.67089      4.90317     12.13134        -0.011727      0.004778      0.000232
     19.24653      4.90329     12.14054        -0.000355     -0.002537      0.000420
     17.10603      1.22596     12.13703         0.000903     -0.000756     -0.000759
     25.66755      1.22597     12.13297         0.001141     -0.000938      0.001388
     12.82253      1.22599     12.12646        -0.000928     -0.002623     -0.001247
     21.38697      1.22596     12.14235         0.000144     -0.002249      0.001621
     14.96517      0.00018     12.13072        -0.003410     -0.001550      0.002422
     23.52737      0.00019     12.14163         0.003153      0.000831      0.000806
     10.67134      0.00014     12.13120        -0.011724     -0.001974      0.002884
     19.24644      0.00022     12.13969         0.001988     -0.001484      0.002111
     17.10601      3.67749     12.13780         0.002079     -0.000419     -0.002202
     25.66780      3.67753     12.13311         0.002556     -0.001211      0.005495
     12.82230      3.67744     12.12660         0.000475      0.001693      0.000717
     21.38705      3.67749     12.14286        -0.003171      0.000012      0.003180
     14.96512      2.45168     12.13157        -0.003290      0.003720      0.000326
     23.52752      2.45176     12.14207         0.001697      0.001223      0.000531
     10.67088      2.45173     12.13136        -0.016038     -0.002256      0.000986
     19.24657      2.45173     12.14054        -0.001936      0.001557      0.000356
     17.84300      7.35437     15.66118        -0.003719     -0.000025     -0.000170
     26.41839      7.35443     15.67001         0.001248     -0.000599     -0.002132
     13.56172      7.35439     15.66343        -0.000482      0.002970     -0.003544
     22.12448      7.35444     15.66939        -0.000214     -0.000010     -0.002710
     15.70220      6.12860     15.65979         0.004519      0.002811     -0.000951
     24.26722      6.12859     15.67417        -0.001416      0.000742     -0.000350
     11.42170      6.12867     15.67317         0.001531     -0.000165     -0.000050
     19.98352      6.12863     15.66424        -0.002161      0.000756     -0.000205
     17.84279      2.45126     15.66033         0.003616      0.002093      0.001071
     26.41889      2.45137     15.66980         0.000734     -0.002558      0.000692
     13.56162      2.45133     15.66274        -0.001141      0.001567      0.000394
     22.12437      2.45132     15.66863         0.008208      0.003975      0.001644
     15.70221      1.22556     15.65981         0.003739     -0.003285     -0.000998
     24.26723      1.22566     15.67417        -0.001919     -0.000777     -0.000300
     11.42171      1.22558     15.67316         0.003002      0.002386     -0.000626
     19.98351      1.22559     15.66425        -0.001454     -0.001188     -0.000267
     17.84281      4.90282     15.66033         0.003087     -0.001458      0.001121
     26.41894      4.90285     15.66981        -0.001075      0.001939      0.000649
     13.56162      4.90288     15.66274         0.001043     -0.002773      0.000045
     22.12439      4.90290     15.66863         0.006945     -0.002928      0.001730
     15.70226      3.67707     15.65926        -0.000440     -0.000386     -0.002297
     24.26743      3.67712     15.67398        -0.002416      0.000628      0.000213
     11.42143      3.67715     15.67285         0.002283     -0.002721     -0.001372
     19.98350      3.67712     15.66359        -0.002444     -0.000807      0.000306
      9.97960      6.12860     15.68236        -0.012212      0.002951     -0.002684
      9.97914      3.67711     15.68201        -0.014645      0.006522     -0.004949
      9.97964      1.22555     15.68236        -0.021502     -0.009928     -0.005930
     27.10971      6.12897     12.12595         0.000225      0.003458      0.002735
     27.11017      3.67746     12.12646        -0.005781      0.001677     -0.000554
     27.10970      1.22597     12.12596        -0.001015     -0.000887      0.002616
      9.29465      4.90300     15.68666         0.018874     -0.002322     -0.003359
      9.29471      2.45115     15.68667         0.071232      0.002793     -0.002064
      9.29498      7.35444     15.68702         0.013997     -0.000764     -0.005530
     27.79449      0.00019     12.12331         0.003346     -0.002422     -0.000778
     27.79482      2.45160     12.12348        -0.004808     -0.000408     -0.000338
     27.79484      4.90333     12.12348        -0.003546      0.000717     -0.000432
      8.89362      6.12996     12.15181         0.000240     -0.003427      0.002807
      8.89323      3.67747     12.15180        -0.012894     -0.000374      0.002272
      8.89360      1.22495     12.15184        -0.012827      0.003999      0.002813
     28.19618      6.12953     15.64955        -0.004891     -0.002652     -0.001637
     28.19658      3.67710     15.64968        -0.006687     -0.000019     -0.001303
     28.19619      1.22466     15.64955        -0.005524      0.002903     -0.001647
      8.20137      4.90363     15.69366        -0.019199     -0.002852     -0.000822
      8.20149      2.45062     15.69367        -0.049968      0.001635      0.007167
      8.20156      7.35446     15.69330        -0.015094      0.000938      0.000543
     28.88791      0.00014     12.12011        -0.000999      0.000364     -0.001174
     28.88801      2.45102     12.11967         0.005725      0.001985     -0.000118
     28.88809      4.90386     12.11969         0.004194     -0.001526     -0.000106
      5.20130      2.44816     13.90597         0.070391     -0.000269      0.002431
 -----------------------------------------------------------------------------------
    total drift:                               -0.036810     -0.010318     -0.026494


--------------------------------------------------------------------------------------------------------



  FREE ENERGIE OF THE ION-ELECTRON SYSTEM (eV)
  ---------------------------------------------------
  free  energy   TOTEN  =     -1041.21907701 eV

  energy  without entropy=    -1041.19262859  energy(sigma->0) =    -1041.20585280



--------------------------------------------------------------------------------------------------------


    POTLOK:  cpu time    0.2297: real time    0.2467


--------------------------------------------------------------------------------------------------------


 stress matrix after NEB project (eV)
    -12.69962     -0.00320     -0.26665
     -0.00320     23.64638     -0.00257
     -0.26665     -0.00257    -15.80602
  FORCES: max atom, RMS     0.071317    0.012337
  FORCE total and by dimension    0.135705    0.071232
  Stress total and by dimension   31.151312   23.646384
 writing wavefunctions
     LOOP+:  cpu time 1389.6491: real time 1404.1281
    4ORBIT:  cpu time    0.0000: real time    0.0000

 total amount of memory used by VASP MPI-rank0   280966. kBytes
=======================================================================

   base      :      30000. kBytes
   nonlr-proj:       4989. kBytes
   fftplans  :      14214. kBytes
   grid      :      37253. kBytes
   one-center:        190. kBytes
   wavefun   :     194320. kBytes

  
  
 General timing and accounting informations for this job:
 ========================================================
  
                  Total CPU time used (sec):     1426.946
                            User time (sec):     1417.669
                          System time (sec):        9.277
                         Elapsed time (sec):     1443.983
  
                   Maximum memory used (kb):      468368.
                   Average memory used (kb):           0.
  
                          Minor page faults:      1133717
                          Major page faults:            2
                 Voluntary context switches:        14966
