 vasp.5.4.4.18Apr17-6-g9f103f2a35 (build Sep 10 2024 21:01:58) complex           
 executed on             LinuxGNU date 2025.04.14  16:13:30
 running on   40 total cores
 distrk:  each k-point on   40 cores,    1 groups
 distr:  one band on NCORES_PER_BAND=   4 cores,   10 groups


--------------------------------------------------------------------------------------------------------


 INCAR:
 POTCAR:    PAW_PBE C 08Apr2002                   
 POTCAR:    PAW_PBE H 15Jun2001                   
 POTCAR:    PAW_PBE Li 17Jan2003                  
 POTCAR:    PAW_PBE C 08Apr2002                   
   SHA256 =  253f7b50bb8d59471dbedb8285d89021f4a42ed1a2c5d38a03a736e69125dd95 C/
   COPYR  = (c) Copyright 08Apr2002 Georg Kresse                                
   COPYR  = This file is part of the software VASP. Any use, copying, and all ot
   COPYR  = If you do not have a valid VASP license, you may not use, copy or di
   VRHFIN =C: s2p2                                                              
   LEXCH  = PE                                                                  
   EATOM  =   147.1560 eV,   10.8157 Ry                                         
                                                                                
   TITEL  = PAW_PBE C 08Apr2002                                                 
   LULTRA =        F    use ultrasoft PP ?                                      
   IUNSCR =        1    unscreen: 0-lin 1-nonlin 2-no                           
   RPACOR =    1.200    partial core radius                                     
   POMASS =   12.011; ZVAL   =    4.000    mass and valenz                      
   RCORE  =    1.500    outmost cutoff radius                                   
   RWIGS  =    1.630; RWIGS  =    0.863    wigner-seitz radius (au A)           
   ENMAX  =  400.000; ENMIN  =  300.000 eV                                      
   ICORE  =        2    local potential                                         
   LCOR   =        T    correct aug charges                                     
   LPAW   =        T    paw PP                                                  
   EAUG   =  644.873                                                            
   DEXC   =    0.000                                                            
   RMAX   =    1.529    core radius for proj-oper                               
   RAUG   =    1.300    factor for augmentation sphere                          
   RDEP   =    1.501    radius for radial grids                                 
   RDEPT  =    1.300    core radius for aug-charge                              
                                                                                
   Atomic configuration                                                         
    4 entries                                                                   
     n  l   j            E        occ.                                          
     1  0  0.50      -273.3789   2.0000                                         
     2  0  0.50       -13.7508   2.0000                                         
     2  1  0.50        -5.2854   2.0000                                         
     3  2  1.50        -5.4423   0.0000                                         
   Description                                                                  
     l       E           TYP  RCUT    TYP  RCUT                                 
     0    -13.7508458     23  1.200                                             
     0     -8.2022199     23  1.200                                             
     1     -5.2854383     23  1.500                                             
     1     34.0145650     23  1.500                                             
     2     -5.4423304      7  1.500                                             
  local pseudopotential read in
  partial core-charges read in
  partial kinetic energy density read in
  atomic valenz-charges read in
  non local Contribution for L=           0  read in
    real space projection operators read in
  non local Contribution for L=           0  read in
    real space projection operators read in
  non local Contribution for L=           1  read in
    real space projection operators read in
  non local Contribution for L=           1  read in
    real space projection operators read in
    PAW grid and wavefunctions read in

   number of l-projection  operators is LMAX  =           4
   number of lm-projection operators is LMMAX =           8

 POTCAR:    PAW_PBE H 15Jun2001                   
   SHA256 =  030f79b5d3ab3cf0e668861823c8fb652ff669f3e15e46930bd03bfd63a607b6 H/
   COPYR  = (c) Copyright 15Jun2001 Georg Kresse                                
   COPYR  = This file is part of the software VASP. Any use, copying, and all ot
   COPYR  = If you do not have a valid VASP license, you may not use, copy or di
   VRHFIN =H: ultrasoft test                                                    
   LEXCH  = PE                                                                  
   EATOM  =    12.4884 eV,    0.9179 Ry                                         
                                                                                
   TITEL  = PAW_PBE H 15Jun2001                                                 
   LULTRA =        F    use ultrasoft PP ?                                      
   IUNSCR =        0    unscreen: 0-lin 1-nonlin 2-no                           
   RPACOR =    0.000    partial core radius                                     
   POMASS =    1.000; ZVAL   =    1.000    mass and valenz                      
   RCORE  =    1.100    outmost cutoff radius                                   
   RWIGS  =    0.700; RWIGS  =    0.370    wigner-seitz radius (au A)           
   ENMAX  =  250.000; ENMIN  =  200.000 eV                                      
   RCLOC  =    0.701    cutoff for local pot                                    
   LCOR   =        T    correct aug charges                                     
   LPAW   =        T    paw PP                                                  
   EAUG   =  400.000                                                            
   RMAX   =    1.123    core radius for proj-oper                               
   RAUG   =    1.200    factor for augmentation sphere                          
   RDEP   =    1.112    radius for radial grids                                 
   RDEPT  =    0.926    core radius for aug-charge                              
                                                                                
   Atomic configuration                                                         
    2 entries                                                                   
     n  l   j            E        occ.                                          
     1  0  0.50        -6.4927   1.0000                                         
     2  1  0.50        -3.4015   0.0000                                         
   Description                                                                  
     l       E           TYP  RCUT    TYP  RCUT                                 
     0     -6.4927494     23  1.100                                             
     0      6.8029130     23  1.100                                             
     1     -4.0817478     23  1.100                                             
  local pseudopotential read in
  atomic valenz-charges read in
  non local Contribution for L=           0  read in
    real space projection operators read in
  non local Contribution for L=           0  read in
    real space projection operators read in
  non local Contribution for L=           1  read in
    real space projection operators read in
    PAW grid and wavefunctions read in

   number of l-projection  operators is LMAX  =           3
   number of lm-projection operators is LMMAX =           5

 POTCAR:    PAW_PBE Li 17Jan2003                  
   SHA256 =  3d9d9bfd1dd25b20a3b919cb3191e6ef627605783dc2e149b9290ff31c32aa6e Li
   COPYR  = (c) Copyright 17Jan2003 Georg Kresse                                
   COPYR  = This file is part of the software VASP. Any use, copying, and all ot
   COPYR  = If you do not have a valid VASP license, you may not use, copy or di
   VRHFIN =Li: s1p0                                                             
   LEXCH  = PE                                                                  
   EATOM  =     5.3001 eV,    0.3895 Ry                                         
                                                                                
   TITEL  = PAW_PBE Li 17Jan2003                                                
   LULTRA =        F    use ultrasoft PP ?                                      
   IUNSCR =        1    unscreen: 0-lin 1-nonlin 2-no                           
   RPACOR =    1.500    partial core radius                                     
   POMASS =    7.010; ZVAL   =    1.000    mass and valenz                      
   RCORE  =    2.050    outmost cutoff radius                                   
   RWIGS  =    2.600; RWIGS  =    1.376    wigner-seitz radius (au A)           
   ENMAX  =  140.000; ENMIN  =  100.000 eV                                      
   ICORE  =        2    local potential                                         
   LCOR   =        T    correct aug charges                                     
   LPAW   =        T    paw PP                                                  
   EAUG   =  331.638                                                            
   DEXC   =    0.000                                                            
   RMAX   =    2.098    core radius for proj-oper                               
   RAUG   =    1.300    factor for augmentation sphere                          
   RDEP   =    2.094    radius for radial grids                                 
   RDEPT  =    1.810    core radius for aug-charge                              
                                                                                
   Atomic configuration                                                         
    4 entries                                                                   
     n  l   j            E        occ.                                          
     1  0  0.50       -51.8549   2.0000                                         
     2  0  0.50        -2.8742   1.0000                                         
     2  1  0.50        -1.3606   0.0000                                         
     3  2  1.50        -1.3606   0.0000                                         
   Description                                                                  
     l       E           TYP  RCUT    TYP  RCUT                                 
     0     -2.8742052     23  2.050                                             
     0     27.2116520     23  2.050                                             
     1     -1.3605826     23  2.050                                             
     2     -1.3605826     23  2.050                                             
  local pseudopotential read in
  partial core-charges read in
  partial kinetic energy density read in
  atomic valenz-charges read in
  non local Contribution for L=           0  read in
    real space projection operators read in
  non local Contribution for L=           0  read in
    real space projection operators read in
  non local Contribution for L=           1  read in
    real space projection operators read in
    PAW grid and wavefunctions read in

   number of l-projection  operators is LMAX  =           3
   number of lm-projection operators is LMMAX =           5

 Optimization of the real space projectors (new method)

 maximal supplied QI-value         = 25.13
 optimisation between [QCUT,QGAM] = [ 10.05, 20.36] = [ 28.30,116.06] Ry 
 Optimized for a Real-space Cutoff    1.30 Angstroem

   l    n(q)    QCUT    max X(q) W(low)/X(q) W(high)/X(q)  e(spline) 
   0      8    10.053   115.676    0.49E-03    0.72E-03    0.18E-06
   0      8    10.053    87.132    0.49E-03    0.71E-03    0.18E-06
   1      7    10.053     4.429    0.32E-03    0.31E-03    0.18E-06
   1      7    10.053     2.733    0.23E-03    0.19E-03    0.20E-06
 Optimization of the real space projectors (new method)

 maximal supplied QI-value         = 34.20
 optimisation between [QCUT,QGAM] = [  9.92, 20.18] = [ 27.55,114.04] Ry 
 Optimized for a Real-space Cutoff    1.26 Angstroem

   l    n(q)    QCUT    max X(q) W(low)/X(q) W(high)/X(q)  e(spline) 
   0      8     9.919    19.460    0.50E-03    0.23E-03    0.29E-06
   0      8     9.919    12.209    0.48E-03    0.23E-03    0.28E-06
   1      7     9.919     4.655    0.17E-03    0.75E-03    0.30E-06
 Optimization of the real space projectors (new method)

 maximal supplied QI-value         = 18.33
 optimisation between [QCUT,QGAM] = [ 10.08, 20.35] = [ 28.46,115.93] Ry 
 Optimized for a Real-space Cutoff    1.16 Angstroem

   l    n(q)    QCUT    max X(q) W(low)/X(q) W(high)/X(q)  e(spline) 
   0      7    10.082    33.825    0.44E-03    0.14E-03    0.78E-07
   0      7    10.082     8.944    0.33E-03    0.12E-03    0.56E-07
   1      6    10.082     4.214    0.33E-03    0.37E-03    0.39E-07
  PAW_PBE C 08Apr2002                   :
 energy of atom  1       EATOM= -147.1560
 kinetic energy error for atom=    0.0288 (will be added to EATOM!!)
  PAW_PBE H 15Jun2001                   :
 energy of atom  2       EATOM=  -12.4884
 kinetic energy error for atom=    0.0098 (will be added to EATOM!!)
  PAW_PBE Li 17Jan2003                  :
 energy of atom  3       EATOM=   -5.3001
 kinetic energy error for atom=    0.0000 (will be added to EATOM!!)


 POSCAR: C4                                      
  positions in direct lattice
  velocities in cartesian coordinates
 exchange correlation table for  LEXCH =        8
   RHO(1)=    0.500       N(1)  =     2000
   RHO(2)=  100.500       N(2)  =     4000

 VTST: version 3.2, (02/03/18)

 CHAIN: initializing optimizer
 
 OPT: Using VASP Conjugate-Gradient optimizer
 CHAIN: Read ICHAIN            0

 POSCAR: C4                                      
  positions in direct lattice
  velocities in cartesian coordinates



--------------------------------------------------------------------------------------------------------


 ion  position               nearest neighbor table
   1  0.467  0.003  0.436-  28 1.42  25 1.43  93 1.43
   2  0.467  0.503  0.436-  27 1.42  26 1.43  94 1.43
   3  0.434  0.253  0.436-  25 1.42  33 1.42  27 1.43
   4  0.434  0.753  0.436-  26 1.42  34 1.42  28 1.43
   5  0.334  0.003  0.436-  32 1.41  36 1.42  29 1.43
   6  0.334  0.503  0.436-  31 1.41  35 1.42  30 1.43
   7  0.302  0.257  0.436- 115 1.09  31 1.37  29 1.41
   8  0.302  0.756  0.436- 116 1.09  32 1.37  30 1.41
   9  0.401  0.003  0.436-  33 1.42  28 1.42  36 1.43
  10  0.401  0.503  0.436-  34 1.42  27 1.43  35 1.43
  11  0.367  0.253  0.436-  29 1.42  35 1.43  33 1.43
  12  0.367  0.753  0.436-  30 1.42  36 1.43  34 1.43
  13  0.467  0.997  0.564-  45 1.42  40 1.43  86 1.43
  14  0.467  0.497  0.564-  46 1.42  39 1.43  85 1.43
  15  0.434  0.247  0.564-  39 1.42  47 1.42  45 1.43
  16  0.434  0.747  0.564-  40 1.42  48 1.42  46 1.43
  17  0.334  0.997  0.564-  37 1.41  41 1.42  44 1.43
  18  0.334  0.497  0.564-  38 1.41  42 1.42  43 1.43
  19  0.302  0.243  0.564- 117 1.09  37 1.37  43 1.41
  20  0.302  0.744  0.564- 118 1.09  38 1.37  44 1.41
  21  0.401  0.997  0.564-  48 1.42  45 1.43  41 1.43
  22  0.401  0.497  0.564-  47 1.42  46 1.43  42 1.43
  23  0.367  0.247  0.564-  43 1.42  41 1.43  47 1.43
  24  0.367  0.747  0.564-  44 1.42  42 1.43  48 1.43
  25  0.467  0.170  0.436-   3 1.42   1 1.43  72 1.43
  26  0.467  0.670  0.436-   4 1.42   2 1.43  71 1.43
  27  0.434  0.420  0.436-   2 1.42  10 1.43   3 1.43
  28  0.434  0.920  0.436-   1 1.42   9 1.42   4 1.43
  29  0.334  0.170  0.436-   7 1.41  11 1.42   5 1.43
  30  0.334  0.670  0.436-   8 1.41  12 1.42   6 1.43
  31  0.302  0.417  0.436- 120 1.09   7 1.37   6 1.41
  32  0.302  0.917  0.436- 119 1.09   8 1.37   5 1.41
  33  0.401  0.170  0.436-   9 1.42   3 1.42  11 1.43
  34  0.401  0.670  0.436-  10 1.42   4 1.42  12 1.43
  35  0.367  0.420  0.436-   6 1.42  11 1.43  10 1.43
  36  0.367  0.920  0.436-   5 1.42  12 1.43   9 1.43
  37  0.302  0.083  0.564- 113 1.09  19 1.37  17 1.41
  38  0.302  0.583  0.564- 114 1.09  20 1.37  18 1.41
  39  0.467  0.330  0.564-  15 1.42  14 1.43  58 1.43
  40  0.467  0.830  0.564-  16 1.42  13 1.43  57 1.43
  41  0.367  0.080  0.564-  17 1.42  23 1.43  21 1.43
  42  0.367  0.580  0.564-  18 1.42  24 1.43  22 1.43
  43  0.334  0.330  0.564-  19 1.41  23 1.42  18 1.43
  44  0.334  0.830  0.564-  20 1.41  24 1.42  17 1.43
  45  0.434  0.080  0.564-  13 1.42  21 1.43  15 1.43
  46  0.434  0.580  0.564-  14 1.42  22 1.43  16 1.43
  47  0.401  0.330  0.564-  22 1.42  15 1.42  23 1.43
  48  0.401  0.830  0.564-  21 1.42  16 1.42  24 1.43
  49  0.533  0.997  0.564-  80 1.42  77 1.43  86 1.43
  50  0.533  0.497  0.564-  79 1.42  78 1.43  85 1.43
  51  0.566  0.747  0.564-  77 1.42  87 1.42  79 1.43
  52  0.566  0.247  0.564-  78 1.42  88 1.42  80 1.43
  53  0.666  0.997  0.564-  84 1.41  90 1.42  81 1.43
  54  0.666  0.497  0.564-  83 1.41  89 1.42  82 1.43
  55  0.698  0.743  0.564- 107 1.09  83 1.37  81 1.41
  56  0.698  0.243  0.564- 108 1.09  84 1.37  82 1.41
  57  0.500  0.747  0.564-  85 1.42  77 1.43  40 1.43
  58  0.500  0.247  0.564-  86 1.42  78 1.43  39 1.43
  59  0.599  0.997  0.564-  87 1.42  80 1.42  90 1.43
  60  0.599  0.497  0.564-  88 1.42  79 1.43  89 1.43
  61  0.633  0.747  0.564-  81 1.42  89 1.43  87 1.43
  62  0.633  0.247  0.564-  82 1.42  90 1.43  88 1.43
  63  0.533  0.003  0.436- 101 1.42  96 1.43  93 1.43
  64  0.533  0.503  0.436- 102 1.42  95 1.43  94 1.43
  65  0.566  0.753  0.436-  95 1.42 103 1.42 101 1.43
  66  0.566  0.253  0.436-  96 1.42 104 1.42 102 1.43
  67  0.666  0.003  0.436-  91 1.41  97 1.42 100 1.43
  68  0.666  0.503  0.436-  92 1.41  98 1.42  99 1.43
  69  0.698  0.757  0.436- 109 1.09  91 1.37  99 1.41
  70  0.698  0.256  0.436- 110 1.09  92 1.37 100 1.41
  71  0.500  0.753  0.436-  93 1.42  95 1.43  26 1.43
  72  0.500  0.253  0.436-  94 1.42  25 1.43  96 1.43
  73  0.599  0.003  0.436- 104 1.42 101 1.43  97 1.43
  74  0.599  0.503  0.436- 103 1.42 102 1.43  98 1.43
  75  0.633  0.753  0.436-  99 1.42  97 1.43 103 1.43
  76  0.633  0.253  0.436- 100 1.42  98 1.43 104 1.43
  77  0.533  0.830  0.564-  51 1.42  49 1.43  57 1.43
  78  0.533  0.330  0.564-  52 1.42  50 1.43  58 1.43
  79  0.566  0.580  0.564-  50 1.42  60 1.43  51 1.43
  80  0.566  0.080  0.564-  49 1.42  59 1.42  52 1.43
  81  0.666  0.830  0.564-  55 1.41  61 1.42  53 1.43
  82  0.666  0.330  0.564-  56 1.41  62 1.42  54 1.43
  83  0.698  0.583  0.564- 112 1.09  55 1.37  54 1.41
  84  0.698  0.083  0.564- 111 1.09  56 1.37  53 1.41
  85  0.500  0.580  0.564-  57 1.42  14 1.43  50 1.43
  86  0.500  0.080  0.564-  58 1.42  13 1.43  49 1.43
  87  0.599  0.830  0.564-  59 1.42  51 1.42  61 1.43
  88  0.599  0.330  0.564-  60 1.42  52 1.42  62 1.43
  89  0.633  0.580  0.564-  54 1.42  61 1.43  60 1.43
  90  0.633  0.080  0.564-  53 1.42  62 1.43  59 1.43
  91  0.698  0.917  0.436- 105 1.09  69 1.37  67 1.41
  92  0.698  0.417  0.436- 106 1.09  70 1.37  68 1.41
  93  0.500  0.919  0.436-  71 1.42   1 1.43  63 1.43
  94  0.500  0.420  0.436-  72 1.42  64 1.43   2 1.43
  95  0.533  0.670  0.436-  65 1.42  64 1.43  71 1.43
  96  0.533  0.170  0.436-  66 1.42  63 1.43  72 1.43
  97  0.633  0.920  0.436-  67 1.42  75 1.43  73 1.43
  98  0.633  0.420  0.436-  68 1.42  76 1.43  74 1.43
  99  0.666  0.670  0.436-  69 1.41  75 1.42  68 1.43
 100  0.666  0.170  0.436-  70 1.41  76 1.42  67 1.43
 101  0.566  0.920  0.436-  63 1.42  73 1.43  65 1.43
 102  0.566  0.420  0.436-  64 1.42  74 1.43  66 1.43
 103  0.599  0.670  0.436-  74 1.42  65 1.42  75 1.43
 104  0.599  0.170  0.436-  73 1.42  66 1.42  76 1.43
 105  0.724  0.977  0.437-  91 1.09
 106  0.724  0.477  0.437-  92 1.09
 107  0.724  0.804  0.563-  55 1.09
 108  0.724  0.304  0.563-  56 1.09
 109  0.724  0.696  0.437-  69 1.09
 110  0.724  0.196  0.437-  70 1.09
 111  0.724  0.023  0.563-  84 1.09
 112  0.724  0.523  0.563-  83 1.09
 113  0.276  0.023  0.563-  37 1.09
 114  0.276  0.523  0.563-  38 1.09
 115  0.276  0.196  0.437-   7 1.09
 116  0.276  0.696  0.437-   8 1.09
 117  0.276  0.304  0.563-  19 1.09
 118  0.276  0.804  0.563-  20 1.09
 119  0.276  0.977  0.437-  32 1.09
 120  0.276  0.477  0.437-  31 1.09
 121  0.142  0.331  0.500-

  LATTYP: Found a simple orthorhombic cell.
 ALAT       =     8.5469398499
 B/A-ratio  =     3.2529857904
 C/A-ratio  =     4.3551772818
  
  Lattice vectors:
  
 A1 = (   0.0000000000,   8.5469398499,   0.0000000000)
 A2 = (   0.0000000000,   0.0000000000, -27.8030738831)
 A3 = ( -37.2234382629,   0.0000000000,   0.0000000000)


Analysis of symmetry for initial positions (statically):
=====================================================================
 Subroutine PRICEL returns:
 Original cell was already a primitive cell.
 

 Routine SETGRP: Setting up the symmetry group for a 
 simple orthorhombic supercell.


 Subroutine GETGRP returns: Found  1 space group operations
 (whereof  1 operations were pure point group operations)
 out of a pool of  8 trial point group operations.


The static configuration has the point symmetry C_1 .


Analysis of symmetry for dynamics (positions and initial velocities):
=====================================================================
 Subroutine PRICEL returns:
 Original cell was already a primitive cell.
 

 Routine SETGRP: Setting up the symmetry group for a 
 simple orthorhombic supercell.


 Subroutine GETGRP returns: Found  1 space group operations
 (whereof  1 operations were pure point group operations)
 out of a pool of  8 trial point group operations.


The dynamic configuration has the point symmetry C_1 .


Analysis of structural, dynamic, and magnetic symmetry:
=====================================================================
 Subroutine PRICEL returns:
 Original cell was already a primitive cell.
 

 Routine SETGRP: Setting up the symmetry group for a 
 simple orthorhombic supercell.


 Subroutine GETGRP returns: Found  1 space group operations
 (whereof  1 operations were pure point group operations)
 out of a pool of  8 trial point group operations.


The magnetic configuration has the point symmetry C_1 .


 Subroutine INISYM returns: Found  1 space group operations
 (whereof  1 operations are pure point group operations),
 and found     1 'primitive' translations



 KPOINTS: Regular k-point mesh                    

Automatic generation of k-mesh.
Space group operators:
 irot       det(A)        alpha          n_x          n_y          n_z        tau_x        tau_y        tau_z
    1     1.000000     0.000000     1.000000     0.000000     0.000000     0.000000     0.000000     0.000000
 
 Subroutine IBZKPT returns following result:
 ===========================================
 
 Found      5 irreducible k-points:
 
 Following reciprocal coordinates:
            Coordinates               Weight
  0.000000  0.000000  0.000000      1.000000
  0.000000  0.125000  0.000000      2.000000
  0.000000  0.250000  0.000000      2.000000
  0.000000  0.375000  0.000000      2.000000
  0.000000  0.500000  0.000000      1.000000
 
 Following cartesian coordinates:
            Coordinates               Weight
  0.000000  0.000000  0.000000      1.000000
  0.000000  0.014625  0.000000      2.000000
  0.000000  0.029250  0.000000      2.000000
  0.000000  0.043875  0.000000      2.000000
  0.000000  0.058500  0.000000      1.000000
 


--------------------------------------------------------------------------------------------------------




 Dimension of arrays:
   k-points           NKPTS =      5   k-points in BZ     NKDIM =      5   number of bands    NBANDS=    340
   number of dos      NEDOS =    301   number of ions     NIONS =    121
   non local maximal  LDIM  =      4   non local SUM 2l+1 LMDIM =      8
   total plane-waves  NPLWV = ******
   max r-space proj   IRMAX =   1228   max aug-charges    IRDMAX=   4283
   dimension x,y,z NGX =   192 NGY =   42 NGZ =  140
   dimension x,y,z NGXF=   384 NGYF=   84 NGZF=  280
   support grid    NGXF=   384 NGYF=   84 NGZF=  280
   ions per type =             104  16   1
   NGX,Y,Z   is equivalent  to a cutoff of   8.58,  8.17,  8.37 a.u.
   NGXF,Y,Z  is equivalent  to a cutoff of  17.15, 16.34, 16.74 a.u.

 SYSTEM =  unknown system                          
 POSCAR =  C4                                      

 Startparameter for this run:
   NWRITE =      2    write-flag & timer
   PREC   = normal    normal or accurate (medium, high low for compatibility)
   ISTART =      0    job   : 0-new  1-cont  2-samecut
   ICHARG =      2    charge: 1-file 2-atom 10-const
   ISPIN  =      2    spin polarized calculation?
   LNONCOLLINEAR =      F non collinear calculations
   LSORBIT =      F    spin-orbit coupling
   INIWAV =      1    electr: 0-lowe 1-rand  2-diag
   LASPH  =      F    aspherical Exc in radial PAW
   METAGGA=      F    non-selfconsistent MetaGGA calc.

 Electronic Relaxation 1
   ENCUT  =  400.0 eV  29.40 Ry    5.42 a.u.  60.70 13.94 45.34*2*pi/ulx,y,z
   ENINI  =  400.0     initial cutoff
   ENAUG  =  644.9 eV  augmentation charge cutoff
   NELM   =    100;   NELMIN=  2; NELMDL= -5     # of ELM steps 
   EDIFF  = 0.1E-03   stopping-criterion for ELM
   LREAL  =      T    real-space projection
   NLSPLINE    = F    spline interpolate recip. space projectors
   LCOMPAT=      F    compatible to vasp.4.4
   GGA_COMPAT  = T    GGA compatible to vasp.4.4-vasp.4.6
   LMAXPAW     = -100 max onsite density
   LMAXMIX     =    2 max onsite mixed and CHGCAR
   VOSKOWN=      0    Vosko Wilk Nusair interpolation
   ROPT   =   -0.00050  -0.00050  -0.00050
 Ionic relaxation
   EDIFFG = -.1E-01   stopping-criterion for IOM
   NSW    =      0    number of steps for IOM
   NBLOCK =      1;   KBLOCK =      1    inner block; outer block 
   IBRION =     -1    ionic relax: 0-MD 1-quasi-New 2-CG
   NFREE  =      1    steps in history (QN), initial steepest desc. (CG)
   ISIF   =      2    stress and relaxation
   IWAVPR =     10    prediction:  0-non 1-charg 2-wave 3-comb
   ISYM   =      2    0-nonsym 1-usesym 2-fastsym
   LCORR  =      T    Harris-Foulkes like correction to forces

   POTIM  = 0.5000    time-step for ionic-motion
   TEIN   =    0.0    initial temperature
   TEBEG  =    0.0;   TEEND  =   0.0 temperature during run
   SMASS  =  -3.00    Nose mass-parameter (am)
   estimated Nose-frequenzy (Omega)   =  0.10E-29 period in steps =****** mass=  -0.317E-25a.u.
   SCALEE = 1.0000    scale energy and forces
   NPACO  =    256;   APACO  = 16.0  distance and # of slots for P.C.
   PSTRESS=    0.0 pullay stress

  Mass of Ions in am
   POMASS =  12.01  1.00  7.01
  Ionic Valenz
   ZVAL   =   4.00  1.00  1.00
  Atomic Wigner-Seitz radii
   RWIGS  =  -1.00 -1.00 -1.00
  virtual crystal weights 
   VCA    =   1.00  1.00  1.00
   NELECT =     433.0000    total number of electrons
   NUPDOWN=      -1.0000    fix difference up-down

 DOS related values:
   EMIN   =  10.00;   EMAX   =-10.00  energy-range for DOS
   EFERMI =   0.00
   ISMEAR =     0;   SIGMA  =   0.10  broadening in eV -4-tet -1-fermi 0-gaus

 Electronic relaxation 2 (details)
   IALGO  =     38    algorithm
   LDIAG  =      T    sub-space diagonalisation (order eigenvalues)
   LSUBROT=      F    optimize rotation matrix (better conditioning)
   TURBO    =      0    0=normal 1=particle mesh
   IRESTART =      0    0=no restart 2=restart with 2 vectors
   NREBOOT  =      0    no. of reboots
   NMIN     =      0    reboot dimension
   EREF     =   0.00    reference energy to select bands
   IMIX   =      4    mixing-type and parameters
     AMIX     =   0.40;   BMIX     =  1.00
     AMIX_MAG =   1.60;   BMIX_MAG =  1.00
     AMIN     =   0.10
     WC   =   100.;   INIMIX=   1;  MIXPRE=   1;  MAXMIX= -45

 Intra band minimization:
   WEIMIN = 0.0000     energy-eigenvalue tresh-hold
   EBREAK =  0.74E-07  absolut break condition
   DEPER  =   0.30     relativ break condition  

   TIME   =   0.40     timestep for ELM

  volume/ion in A,a.u.               =      73.10       493.32
  Fermi-wavevector in a.u.,A,eV,Ry     =   0.598868  1.131696  4.879626  0.358642
  Thomas-Fermi vector in A             =   1.650134

 Write flags
   LWAVE        =      T    write WAVECAR
   LDOWNSAMPLE  =      F    k-point downsampling of WAVECAR
   LCHARG       =      T    write CHGCAR
   LVTOT        =      F    write LOCPOT, total local potential
   LVHAR        =      F    write LOCPOT, Hartree potential only
   LELF         =      F    write electronic localiz. function (ELF)
   LORBIT       =      0    0 simple, 1 ext, 2 COOP (PROOUT), +10 PAW based schemes


 Dipole corrections
   LMONO  =      F    monopole corrections only (constant potential shift)
   LDIPOL =      F    correct potential (dipole corrections)
   IDIPOL =      0    1-x, 2-y, 3-z, 4-all directions 
   EPSILON=  1.0000000 bulk dielectric constant

 Exchange correlation treatment:
   GGA     =    --    GGA type
   LEXCH   =     8    internal setting for exchange type
   VOSKOWN=      0    Vosko Wilk Nusair interpolation
   LHFCALC =     F    Hartree Fock is set to
   LHFONE  =     F    Hartree Fock one center treatment
   AEXX    =    0.0000 exact exchange contribution

 Linear response parameters
   LEPSILON=     F    determine dielectric tensor
   LRPA    =     F    only Hartree local field effects (RPA)
   LNABLA  =     F    use nabla operator in PAW spheres
   LVEL    =     F    velocity operator in full k-point grid
   LINTERFAST=   F  fast interpolation
   KINTER  =     0    interpolate to denser k-point grid
   CSHIFT  =0.1000    complex shift for real part using Kramers Kronig
   OMEGAMAX=  -1.0    maximum frequency
   DEG_THRESHOLD= 0.2000000E-02 threshold for treating states as degnerate
   RTIME   =   -0.100 relaxation time in fs
  (WPLASMAI=    0.000 imaginary part of plasma frequency in eV, 0.658/RTIME)
   DFIELD  = 0.0000000 0.0000000 0.0000000 field for delta impulse in time

 Orbital magnetization related:
   ORBITALMAG=     F  switch on orbital magnetization
   LCHIMAG   =     F  perturbation theory with respect to B field
   DQ        =  0.001000  dq finite difference perturbation B field
   LLRAUG    =     F  two centre corrections for induced B field



--------------------------------------------------------------------------------------------------------


 Static calculation
 charge density and potential will be updated during run
 spin polarized calculation
 Variant of blocked Davidson
 Davidson routine will perform the subspace rotation
 perform sub-space diagonalisation
    after iterative eigenvector-optimisation
 modified Broyden-mixing scheme, WC =      100.0
 initial mixing is a Kerker type mixing with AMIX =  0.4000 and BMIX =      1.0000
 Hartree-type preconditioning will be used
 using additional bands          123
 real space projection scheme for non local part
 use partial core corrections
 calculate Harris-corrections to forces   (improved forces if not selfconsistent)
 use gradient corrections 
 use of overlap-Matrix (Vanderbilt PP)
 Gauss-broadening in eV      SIGMA  =   0.10


--------------------------------------------------------------------------------------------------------


  energy-cutoff  :      400.00
  volume of cell :     8845.45
      direct lattice vectors                 reciprocal lattice vectors
    37.223438263  0.000000000  0.000000000     0.026864794  0.000000000  0.000000000
     0.000000000  8.546939850  0.000000000     0.000000000  0.117000940  0.000000000
     0.000000000  0.000000000 27.803073883     0.000000000  0.000000000  0.035967246

  length of vectors
    37.223438263  8.546939850 27.803073883     0.026864794  0.117000940  0.035967246



 k-points in units of 2pi/SCALE and weight: Regular k-point mesh                    
   0.00000000  0.00000000  0.00000000       0.125
   0.00000000  0.01462512  0.00000000       0.250
   0.00000000  0.02925024  0.00000000       0.250
   0.00000000  0.04387535  0.00000000       0.250
   0.00000000  0.05850047  0.00000000       0.125

 k-points in reciprocal lattice and weights: Regular k-point mesh                    
   0.00000000  0.00000000  0.00000000       0.125
   0.00000000  0.12500000  0.00000000       0.250
   0.00000000  0.25000000  0.00000000       0.250
   0.00000000  0.37500000  0.00000000       0.250
   0.00000000  0.50000000  0.00000000       0.125

 position of ions in fractional coordinates (direct lattice) 
   0.46682320  0.00297472  0.43597486
   0.46682441  0.50298092  0.43597786
   0.43374231  0.25293625  0.43601871
   0.43374236  0.75294306  0.43601933
   0.33424870  0.00267975  0.43606025
   0.33424624  0.50268228  0.43606661
   0.30182639  0.25650378  0.43628402
   0.30182822  0.75649895  0.43627065
   0.40061359  0.00348454  0.43603631
   0.40061176  0.50348331  0.43603334
   0.36732951  0.25306654  0.43601746
   0.36733302  0.75306775  0.43601521
   0.46682363  0.99701683  0.56402359
   0.46682203  0.49701967  0.56402416
   0.43374127  0.24705801  0.56397954
   0.43374031  0.74705541  0.56398037
   0.33424568  0.99731810  0.56393693
   0.33424612  0.49732097  0.56393602
   0.30182465  0.24349141  0.56372653
   0.30182766  0.74350450  0.56372144
   0.40061076  0.99651122  0.56396301
   0.40061119  0.49651340  0.56396353
   0.36732771  0.24693063  0.56398229
   0.36733083  0.74693300  0.56398208
   0.46682225  0.16977091  0.43597063
   0.46681997  0.66977412  0.43597017
   0.43373852  0.41990595  0.43601288
   0.43373848  0.91990707  0.43601081
   0.33425551  0.17046088  0.43606263
   0.33425768  0.67046343  0.43605640
   0.30181258  0.41663673  0.43624482
   0.30181419  0.91663631  0.43623134
   0.40061075  0.16951033  0.43601396
   0.40061122  0.66951493  0.43601633
   0.36732467  0.42001774  0.43601775
   0.36732767  0.92002170  0.43601519
   0.30181211  0.08336155  0.56376283
   0.30181133  0.58336391  0.56376337
   0.46682035  0.33023146  0.56402865
   0.46681903  0.83022401  0.56403054
   0.36732454  0.07998191  0.56398202
   0.36732481  0.57997832  0.56398151
   0.33425314  0.32953667  0.56394047
   0.33425587  0.82953979  0.56394180
   0.43373711  0.08009345  0.56398853
   0.43373717  0.58009143  0.56398611
   0.40060784  0.33048527  0.56398450
   0.40060986  0.83048174  0.56398102
   0.53317795  0.99701603  0.56402498
   0.53317690  0.49701174  0.56402274
   0.56625919  0.74705831  0.56398086
   0.56625872  0.24705622  0.56398029
   0.66575026  0.99731404  0.56394117
   0.66575242  0.49731675  0.56393527
   0.69817296  0.74349315  0.56372289
   0.69817321  0.24349699  0.56372869
   0.49999965  0.74677709  0.56402245
   0.49999949  0.24677751  0.56402330
   0.59938624  0.99651379  0.56396350
   0.59938725  0.49650797  0.56396547
   0.63266775  0.74692412  0.56398421
   0.63266912  0.24692576  0.56398513
   0.53317790  0.00297945  0.43597581
   0.53317909  0.50297795  0.43597626
   0.56626123  0.75293811  0.43601965
   0.56626047  0.25293895  0.43601859
   0.66575405  0.00267645  0.43606188
   0.66575337  0.50267503  0.43606207
   0.69817497  0.75650075  0.43627080
   0.69817449  0.25649467  0.43627908
   0.50000161  0.75321477  0.43597635
   0.50000167  0.25321844  0.43597894
   0.59938871  0.00349017  0.43603545
   0.59938842  0.50347931  0.43603427
   0.63267037  0.75307068  0.43601577
   0.63267081  0.25306564  0.43601633
   0.53318013  0.83022398  0.56403038
   0.53317970  0.33021966  0.56402944
   0.56626251  0.58008980  0.56398667
   0.56626224  0.08009120  0.56398899
   0.66574234  0.82953065  0.56394091
   0.66574338  0.32953305  0.56394391
   0.69818794  0.58335844  0.56376241
   0.69818741  0.08335547  0.56376873
   0.49999962  0.58049751  0.56403470
   0.50000058  0.08049929  0.56403168
   0.59938982  0.83048673  0.56398507
   0.59939116  0.33047726  0.56398436
   0.63267239  0.57997475  0.56398251
   0.63267162  0.07997338  0.56398488
   0.69818978  0.91663407  0.43623477
   0.69818966  0.41663613  0.43623499
   0.50000066  0.91949494  0.43596828
   0.50000171  0.41950192  0.43596587
   0.53318212  0.66976921  0.43597049
   0.53318159  0.16977294  0.43596998
   0.63267412  0.92001858  0.43601570
   0.63267452  0.42001681  0.43601621
   0.66574452  0.67046299  0.43605801
   0.66574550  0.17045489  0.43605721
   0.56626332  0.91990560  0.43601079
   0.56626323  0.41990072  0.43601315
   0.59939277  0.66950773  0.43601447
   0.59939292  0.16951360  0.43601621
   0.72391709  0.97712321  0.43652626
   0.72391911  0.47711640  0.43653205
   0.72388049  0.80413917  0.56335372
   0.72388138  0.30413326  0.56336551
   0.72388193  0.69586247  0.43663607
   0.72388210  0.19585054  0.43664539
   0.72391548  0.02286590  0.56348009
   0.72391667  0.52287850  0.56346400
   0.27608647  0.02286855  0.56346991
   0.27608403  0.52287789  0.56346642
   0.27612003  0.19585474  0.43666046
   0.27612223  0.69584810  0.43663206
   0.27611835  0.30413505  0.56335819
   0.27612086  0.80415571  0.56335478
   0.27608764  0.97713132  0.43651935
   0.27608501  0.47711488  0.43654883
   0.14179603  0.33127296  0.49998886

 position of ions in cartesian coordinates  (Angst):
  17.37676465  0.02542474 12.12144112
  17.37680957  4.29894765 12.12152458
  16.14538011  2.16183094 12.12266042
  16.14538208  6.43535903 12.12267768
  12.44188586  0.02290363 12.12381539
  12.44179424  4.29639520 12.12399211
  11.23501614  2.19232240 12.13003675
  11.23508417  6.46575100 12.12966522
  14.91221510  0.02978217 12.12314978
  14.91214714  4.30324155 12.12306713
  13.67326724  2.16294446 12.12262578
  13.67339814  6.43642474 12.12256303
  17.37678071  8.52144284 15.68158953
  17.37672100  4.24799726 15.68160544
  16.14534142  2.11158998 15.68036474
  16.14530554  6.38503762 15.68038799
  12.44177352  8.52401778 15.67918026
  12.44178986  4.25057238 15.67915473
  11.23495119  2.08110639 15.67333041
  11.23506340  6.35468822 15.67318893
  14.91210973  8.51712147 15.67990527
  14.91212607  4.24367015 15.67991971
  13.67320047  2.11050126 15.68044121
  13.67331651  6.38399144 15.68043537
  17.37672924  1.45102177 12.12132361
  17.37664427  5.72451914 12.12131088
  16.14523917  3.58891088 12.12249826
  16.14523761  7.86239043 12.12244078
  12.44213926  1.45691893 12.12388153
  12.44222015  5.73041063 12.12370825
  11.23450196  3.56096910 12.12894710
  11.23456184  7.83443544 12.12857209
  14.91210954  1.44879462 12.12252829
  14.91212690  5.72230380 12.12259410
  13.67308706  3.58986635 12.12263379
  13.67319896  7.86337010 12.12256263
  11.23448438  0.71248620 15.67433948
  11.23445523  4.98597624 15.67435463
  17.37665856  2.82246838 15.68173030
  17.37660940  7.09587471 15.68178269
  13.67308221  0.68360055 15.68043368
  13.67309223  4.95703983 15.68041965
  12.44205108  2.81653011 15.67927859
  12.44215256  7.09002666 15.67931540
  16.14518643  0.68455393 15.68061479
  16.14518862  4.95800655 15.68054760
  14.91200127  2.82463768 15.68050262
  14.91207657  7.09807750 15.68040604
  19.84671642  8.52143600 15.68162824
  19.84667728  4.24792943 15.68156587
  21.07811412  6.38506241 15.68040166
  21.07809637  2.11157465 15.68038567
  24.78151377  8.52398309 15.67929810
  24.78159413  4.25053636 15.67913389
  25.98839825  6.35459127 15.67322906
  25.98840754  2.08115411 15.67339029
  18.61170613  6.38265886 15.68155796
  18.61170019  2.10919252 15.68158137
  22.31121683  8.51714344 15.67991884
  22.31125415  4.24362379 15.67997372
  23.55006879  6.38391557 15.68049452
  23.55011997  2.11045963 15.68052031
  19.84671483  0.02546522 12.12146779
  19.84675878  4.29892225 12.12148016
  21.07818987  6.43531675 12.12268662
  21.07816152  2.16185401 12.12265717
  24.78165472  0.02287546 12.12386069
  24.78162952  4.29633324 12.12386594
  25.98847296  6.46576643 12.12966937
  25.98845487  2.19224449 12.12989942
  18.61177894  6.43768132 12.12148256
  18.61178132  2.16424279 12.12155479
  22.31130862  0.02983030 12.12312584
  22.31129793  4.30320738 12.12309309
  23.55016630  6.43644982 12.12257860
  23.55018281  2.16293681 12.12259436
  19.84679780  7.09587440 15.68177827
  19.84678182  2.82236761 15.68175221
  21.07823772  4.95799259 15.68056306
  21.07822760  0.68453469 15.68062750
  24.78121884  7.08994860 15.67929076
  24.78125753  2.81649914 15.67937427
  25.98895566  4.98592950 15.67432796
  25.98893578  0.71243418 15.67450367
  18.61170511  4.96147728 15.68189853
  18.61174068  0.68802257 15.68181451
  22.31134978  7.09812017 15.68051844
  22.31139968  2.82456923 15.68049875
  23.55024152  4.95700926 15.68044735
  23.55021299  0.68352766 15.68051326
  25.98902412  7.83441622 12.12866765
  25.98901974  3.56096394 12.12867355
  18.61174382  7.85886795 12.12125828
  18.61178269  3.58545770 12.12119137
  19.84687156  5.72447713 12.12131965
  19.84685190  1.45103911 12.12130555
  23.55030622  7.86334345 12.12257664
  23.55032110  3.58985839 12.12259103
  24.78130001  5.73040688 12.12375301
  24.78133647  1.45686768 12.12373074
  21.07826784  7.86237780 12.12244020
  21.07826453  3.58886620 12.12250589
  22.31145965  5.72224229 12.12254245
  22.31146550  1.44882252 12.12259104
  26.94668305  8.35141330 12.13677184
  26.94675840  4.07788514 12.13693272
  26.94532073  6.87292915 15.66296521
  26.94535372  2.59940866 15.66329284
  26.94537436  5.94749466 12.13982497
  26.94538083  1.67392280 12.14008401
  26.94662322  0.19543346 15.66647852
  26.94666750  4.46901111 15.66603136
  10.27688767  0.19545610 15.66619545
  10.27679702  4.46900585 15.66609839
  10.27813681  1.67395872 12.14050300
  10.27821867  5.94737182 12.13971346
  10.27807451  2.59942401 15.66308949
  10.27816791  6.87307048 15.66299447
  10.27693108  8.35148266 12.13657962
  10.27683332  4.07787220 12.13739924
   5.27813577  2.83137007 13.90122722



--------------------------------------------------------------------------------------------------------


 k-point  1 :   0.0000 0.0000 0.0000  plane waves:  160581
 k-point  2 :   0.0000 0.1250 0.0000  plane waves:  160598
 k-point  3 :   0.0000 0.2500 0.0000  plane waves:  160676
 k-point  4 :   0.0000 0.3750 0.0000  plane waves:  160782
 k-point  5 :   0.0000 0.5000 0.0000  plane waves:  160764

 maximum and minimum number of plane-waves per node :     40304    39998

 maximum number of plane-waves:    160782
 maximum index in each direction: 
   IXMAX=   60   IYMAX=   13   IZMAX=   45
   IXMIN=  -60   IYMIN=  -14   IZMIN=  -45


 real space projection operators:
  total allocation   :       8142.82 KBytes
  max/ min on nodes  :       2038.12       2032.90


 parallel 3D FFT for wavefunctions:
    minimum data exchange during FFTs selected (reduces bandwidth)
 parallel 3D FFT for charge:
    minimum data exchange during FFTs selected (reduces bandwidth)


 total amount of memory used by VASP MPI-rank0   315296. kBytes
=======================================================================

   base      :      30000. kBytes
   nonlr-proj:       4968. kBytes
   fftplans  :      16574. kBytes
   grid      :      43462. kBytes
   one-center:        190. kBytes
   wavefun   :     220102. kBytes

     INWAV:  cpu time    0.0001: real time    0.0001
 Broyden mixing: mesh for mixing (old mesh)
   NGX =121   NGY = 27   NGZ = 91
  (NGX  =384   NGY  = 84   NGZ  =280)
  gives a total of 297297 points

 initial charge density was supplied:
 charge density of overlapping atoms calculated
 number of electron     433.0000000 magnetization     121.0000000
 keeping initial charge density in first step


--------------------------------------------------------------------------------------------------------


 Maximum index for non-local projection operator          295
 Maximum index for augmentation-charges          128 (set IRDMAX)


--------------------------------------------------------------------------------------------------------


 First call to EWALD:  gamma=   0.086
 Maximum number of real-space cells 2x 6x 2
 Maximum number of reciprocal cells 5x 1x 4

    FEWALD:  cpu time    0.0043: real time    0.0043


--------------------------------------- Iteration      1(   1)  ---------------------------------------


    POTLOK:  cpu time    0.3227: real time    0.3389
    SETDIJ:  cpu time    0.0158: real time    0.0159
     EDDAV:  cpu time   53.3114: real time   53.6102
       DOS:  cpu time    0.0011: real time    0.0011
    --------------------------------------------
      LOOP:  cpu time   53.6510: real time   53.9660

 eigenvalue-minimisations  :  8340
 total energy-change (2. order) : 0.3591249E+04  (-0.1289844E+05)
 number of electron     433.0000000 magnetization     121.0000000
 augmentation part      433.0000000 magnetization     121.0000000

 Free energy of the ion-electron system (eV)
  ---------------------------------------------------
  alpha Z        PSCENC =       106.58810953
  Ewald energy   TEWEN  =    182298.06005929
  -Hartree energ DENC   =   -193109.73490802
  -exchange      EXHF   =         0.00000000
  -V(xc)+E(xc)   XCENC  =      1425.65650840
  PAW double counting   =     11309.19404398   -11362.06715896
  entropy T*S    EENTRO =        -0.31320201
  eigenvalues    EBANDS =     -2582.32347498
  atomic energy  EATOM  =     15506.18949415
  Solvation  Ediel_sol  =         0.00000000
  ---------------------------------------------------
  free energy    TOTEN  =      3591.24947136 eV

  energy without entropy =     3591.56267337  energy(sigma->0) =     3591.40607237


--------------------------------------------------------------------------------------------------------




--------------------------------------- Iteration      1(   2)  ---------------------------------------


     EDDAV:  cpu time   64.7237: real time   65.0821
       DOS:  cpu time    0.0010: real time    0.0010
    --------------------------------------------
      LOOP:  cpu time   64.7248: real time   65.0831

 eigenvalue-minimisations  : 10720
 total energy-change (2. order) :-0.3707862E+04  (-0.3353252E+04)
 number of electron     433.0000000 magnetization     121.0000000
 augmentation part      433.0000000 magnetization     121.0000000

 Free energy of the ion-electron system (eV)
  ---------------------------------------------------
  alpha Z        PSCENC =       106.58810953
  Ewald energy   TEWEN  =    182298.06005929
  -Hartree energ DENC   =   -193109.73490802
  -exchange      EXHF   =         0.00000000
  -V(xc)+E(xc)   XCENC  =      1425.65650840
  PAW double counting   =     11309.19404398   -11362.06715896
  entropy T*S    EENTRO =        -0.01624391
  eigenvalues    EBANDS =     -6290.48278387
  atomic energy  EATOM  =     15506.18949415
  Solvation  Ediel_sol  =         0.00000000
  ---------------------------------------------------
  free energy    TOTEN  =      -116.61287942 eV

  energy without entropy =     -116.59663551  energy(sigma->0) =     -116.60475746


--------------------------------------------------------------------------------------------------------




--------------------------------------- Iteration      1(   3)  ---------------------------------------


     EDDAV:  cpu time   57.3622: real time   57.6683
       DOS:  cpu time    0.0010: real time    0.0010
    --------------------------------------------
      LOOP:  cpu time   57.3632: real time   57.6693

 eigenvalue-minimisations  :  9290
 total energy-change (2. order) :-0.8688270E+03  (-0.8652513E+03)
 number of electron     433.0000000 magnetization     121.0000000
 augmentation part      433.0000000 magnetization     121.0000000

 Free energy of the ion-electron system (eV)
  ---------------------------------------------------
  alpha Z        PSCENC =       106.58810953
  Ewald energy   TEWEN  =    182298.06005929
  -Hartree energ DENC   =   -193109.73490802
  -exchange      EXHF   =         0.00000000
  -V(xc)+E(xc)   XCENC  =      1425.65650840
  PAW double counting   =     11309.19404398   -11362.06715896
  entropy T*S    EENTRO =        -0.02768832
  eigenvalues    EBANDS =     -7159.29836331
  atomic energy  EATOM  =     15506.18949415
  Solvation  Ediel_sol  =         0.00000000
  ---------------------------------------------------
  free energy    TOTEN  =      -985.43990327 eV

  energy without entropy =     -985.41221495  energy(sigma->0) =     -985.42605911


--------------------------------------------------------------------------------------------------------




--------------------------------------- Iteration      1(   4)  ---------------------------------------


     EDDAV:  cpu time   56.0236: real time   56.3217
       DOS:  cpu time    0.0011: real time    0.0011
    --------------------------------------------
      LOOP:  cpu time   56.0247: real time   56.3228

 eigenvalue-minimisations  :  9050
 total energy-change (2. order) :-0.3598641E+02  (-0.3581520E+02)
 number of electron     433.0000000 magnetization     121.0000000
 augmentation part      433.0000000 magnetization     121.0000000

 Free energy of the ion-electron system (eV)
  ---------------------------------------------------
  alpha Z        PSCENC =       106.58810953
  Ewald energy   TEWEN  =    182298.06005929
  -Hartree energ DENC   =   -193109.73490802
  -exchange      EXHF   =         0.00000000
  -V(xc)+E(xc)   XCENC  =      1425.65650840
  PAW double counting   =     11309.19404398   -11362.06715896
  entropy T*S    EENTRO =        -0.03287566
  eigenvalues    EBANDS =     -7195.27958192
  atomic energy  EATOM  =     15506.18949415
  Solvation  Ediel_sol  =         0.00000000
  ---------------------------------------------------
  free energy    TOTEN  =     -1021.42630921 eV

  energy without entropy =    -1021.39343356  energy(sigma->0) =    -1021.40987139


--------------------------------------------------------------------------------------------------------




--------------------------------------- Iteration      1(   5)  ---------------------------------------


     EDDAV:  cpu time   59.5132: real time   59.8282
       DOS:  cpu time    0.0010: real time    0.0010
    CHARGE:  cpu time    1.3377: real time    1.3465
    MIXING:  cpu time    0.0054: real time    0.0054
    --------------------------------------------
      LOOP:  cpu time   60.8573: real time   61.1811

 eigenvalue-minimisations  :  9730
 total energy-change (2. order) :-0.8361750E+00  (-0.8339851E+00)
 number of electron     433.0000259 magnetization     115.7469695
 augmentation part       11.4262111 magnetization     113.4869850

 Broyden mixing:
  rms(total) = 0.70723E+01    rms(broyden)= 0.70703E+01
  rms(prec ) = 0.71513E+01
  weight for this iteration     100.00

 Free energy of the ion-electron system (eV)
  ---------------------------------------------------
  alpha Z        PSCENC =       106.58810953
  Ewald energy   TEWEN  =    182298.06005929
  -Hartree energ DENC   =   -193109.73490802
  -exchange      EXHF   =         0.00000000
  -V(xc)+E(xc)   XCENC  =      1425.65650840
  PAW double counting   =     11309.19404398   -11362.06715896
  entropy T*S    EENTRO =        -0.03302616
  eigenvalues    EBANDS =     -7196.11560639
  atomic energy  EATOM  =     15506.18949415
  Solvation  Ediel_sol  =         0.00000000
  ---------------------------------------------------
  free energy    TOTEN  =     -1022.26248419 eV

  energy without entropy =    -1022.22945803  energy(sigma->0) =    -1022.24597111


--------------------------------------------------------------------------------------------------------




--------------------------------------- Iteration      1(   6)  ---------------------------------------


    POTLOK:  cpu time    0.2735: real time    0.2748
    SETDIJ:  cpu time    0.0156: real time    0.0156
     EDDAV:  cpu time   48.8674: real time   49.1340
       DOS:  cpu time    0.0015: real time    0.0015
    CHARGE:  cpu time    1.3327: real time    1.3400
    MIXING:  cpu time    0.0069: real time    0.0069
    --------------------------------------------
      LOOP:  cpu time   50.4976: real time   50.7729

 eigenvalue-minimisations  :  7700
 total energy-change (2. order) : 0.3766308E+03  (-0.6438323E+02)
 number of electron     433.0000264 magnetization     109.6694046
 augmentation part       11.3127932 magnetization     105.2962169

 Broyden mixing:
  rms(total) = 0.41829E+01    rms(broyden)= 0.41823E+01
  rms(prec ) = 0.42424E+01
  weight for this iteration     100.00

 eigenvalues of (default mixing * dielectric matrix)
  average eigenvalue GAMMA=   0.9971
  0.9971

 Free energy of the ion-electron system (eV)
  ---------------------------------------------------
  alpha Z        PSCENC =       106.58810953
  Ewald energy   TEWEN  =    182298.06005929
  -Hartree energ DENC   =   -193927.78509041
  -exchange      EXHF   =         0.00000000
  -V(xc)+E(xc)   XCENC  =      1695.84618928
  PAW double counting   =     21053.28033986   -21114.87141206
  entropy T*S    EENTRO =        -0.04433571
  eigenvalues    EBANDS =     -6262.89500784
  atomic energy  EATOM  =     15506.18949415
  Solvation  Ediel_sol  =         0.00000000
  ---------------------------------------------------
  free energy    TOTEN  =      -645.63165391 eV

  energy without entropy =     -645.58731820  energy(sigma->0) =     -645.60948605


--------------------------------------------------------------------------------------------------------




--------------------------------------- Iteration      1(   7)  ---------------------------------------


    POTLOK:  cpu time    0.2602: real time    0.2614
    SETDIJ:  cpu time    0.0154: real time    0.0154
     EDDAV:  cpu time   50.4996: real time   50.7662
       DOS:  cpu time    0.0012: real time    0.0012
    CHARGE:  cpu time    1.3325: real time    1.3396
    MIXING:  cpu time    0.0074: real time    0.0074
    --------------------------------------------
      LOOP:  cpu time   52.1162: real time   52.3912

 eigenvalue-minimisations  :  8080
 total energy-change (2. order) :-0.4744200E+02  (-0.7229476E+01)
 number of electron     433.0000252 magnetization     101.1143050
 augmentation part       10.9529947 magnetization      96.1801496

 Broyden mixing:
  rms(total) = 0.29100E+01    rms(broyden)= 0.29098E+01
  rms(prec ) = 0.29271E+01
  weight for this iteration     100.00

 eigenvalues of (default mixing * dielectric matrix)
  average eigenvalue GAMMA=   1.2486
  0.8061  1.6911

 Free energy of the ion-electron system (eV)
  ---------------------------------------------------
  alpha Z        PSCENC =       106.58810953
  Ewald energy   TEWEN  =    182298.06005929
  -Hartree energ DENC   =   -194711.64960205
  -exchange      EXHF   =         0.00000000
  -V(xc)+E(xc)   XCENC  =      1662.22545538
  PAW double counting   =     31320.96173631   -31387.45144357
  entropy T*S    EENTRO =        -0.04725638
  eigenvalues    EBANDS =     -5487.95020475
  atomic energy  EATOM  =     15506.18949415
  Solvation  Ediel_sol  =         0.00000000
  ---------------------------------------------------
  free energy    TOTEN  =      -693.07365210 eV

  energy without entropy =     -693.02639572  energy(sigma->0) =     -693.05002391


--------------------------------------------------------------------------------------------------------




--------------------------------------- Iteration      1(   8)  ---------------------------------------


    POTLOK:  cpu time    0.2637: real time    0.2650
    SETDIJ:  cpu time    0.0162: real time    0.0163
     EDDAV:  cpu time   49.7387: real time   50.0042
       DOS:  cpu time    0.0012: real time    0.0012
    CHARGE:  cpu time    1.3497: real time    1.3568
    MIXING:  cpu time    0.0070: real time    0.0070
    --------------------------------------------
      LOOP:  cpu time   51.3765: real time   51.6506

 eigenvalue-minimisations  :  7900
 total energy-change (2. order) :-0.4244633E+02  (-0.3788412E+01)
 number of electron     433.0000241 magnetization      94.4743224
 augmentation part       10.5903763 magnetization      90.1126366

 Broyden mixing:
  rms(total) = 0.20385E+01    rms(broyden)= 0.20384E+01
  rms(prec ) = 0.20417E+01
  weight for this iteration     100.00

 eigenvalues of (default mixing * dielectric matrix)
  average eigenvalue GAMMA=   1.3529
  2.3641  1.0081  0.6866

 Free energy of the ion-electron system (eV)
  ---------------------------------------------------
  alpha Z        PSCENC =       106.58810953
  Ewald energy   TEWEN  =    182298.06005929
  -Hartree energ DENC   =   -195309.51301774
  -exchange      EXHF   =         0.00000000
  -V(xc)+E(xc)   XCENC  =      1652.05485558
  PAW double counting   =     43078.27931276   -43147.20737609
  entropy T*S    EENTRO =        -0.02839763
  eigenvalues    EBANDS =     -4919.94301833
  atomic energy  EATOM  =     15506.18949415
  Solvation  Ediel_sol  =         0.00000000
  ---------------------------------------------------
  free energy    TOTEN  =      -735.51997848 eV

  energy without entropy =     -735.49158086  energy(sigma->0) =     -735.50577967


--------------------------------------------------------------------------------------------------------




--------------------------------------- Iteration      1(   9)  ---------------------------------------


    POTLOK:  cpu time    0.2618: real time    0.2631
    SETDIJ:  cpu time    0.0155: real time    0.0156
     EDDAV:  cpu time   49.4409: real time   49.6993
       DOS:  cpu time    0.0012: real time    0.0012
    CHARGE:  cpu time    1.3442: real time    1.3515
    MIXING:  cpu time    0.0070: real time    0.0071
    --------------------------------------------
      LOOP:  cpu time   51.0707: real time   51.3378

 eigenvalue-minimisations  :  7850
 total energy-change (2. order) :-0.4326300E+02  (-0.1189947E+01)
 number of electron     433.0000238 magnetization      84.0444911
 augmentation part       10.4805902 magnetization      80.5532283

 Broyden mixing:
  rms(total) = 0.16958E+01    rms(broyden)= 0.16957E+01
  rms(prec ) = 0.16988E+01
  weight for this iteration     100.00

 eigenvalues of (default mixing * dielectric matrix)
  average eigenvalue GAMMA=   1.4167
  2.6138  1.5462  0.8488  0.6579

 Free energy of the ion-electron system (eV)
  ---------------------------------------------------
  alpha Z        PSCENC =       106.58810953
  Ewald energy   TEWEN  =    182298.06005929
  -Hartree energ DENC   =   -195438.34340671
  -exchange      EXHF   =         0.00000000
  -V(xc)+E(xc)   XCENC  =      1630.46083796
  PAW double counting   =     47020.55551401   -47088.70886549
  entropy T*S    EENTRO =        -0.03398910
  eigenvalues    EBANDS =     -4813.55073004
  atomic energy  EATOM  =     15506.18949415
  Solvation  Ediel_sol  =         0.00000000
  ---------------------------------------------------
  free energy    TOTEN  =      -778.78297640 eV

  energy without entropy =     -778.74898730  energy(sigma->0) =     -778.76598185


--------------------------------------------------------------------------------------------------------




--------------------------------------- Iteration      1(  10)  ---------------------------------------


    POTLOK:  cpu time    0.2631: real time    0.2645
    SETDIJ:  cpu time    0.0156: real time    0.0157
     EDDAV:  cpu time   48.2216: real time   48.4798
       DOS:  cpu time    0.0015: real time    0.0015
    CHARGE:  cpu time    1.3213: real time    1.3283
    MIXING:  cpu time    0.0084: real time    0.0085
    --------------------------------------------
      LOOP:  cpu time   49.8315: real time   50.0982

 eigenvalue-minimisations  :  7670
 total energy-change (2. order) :-0.7406287E+02  (-0.3454392E+01)
 number of electron     433.0000234 magnetization      71.5610163
 augmentation part       10.4281413 magnetization      69.5886148

 Broyden mixing:
  rms(total) = 0.13507E+01    rms(broyden)= 0.13506E+01
  rms(prec ) = 0.13520E+01
  weight for this iteration     100.00

 eigenvalues of (default mixing * dielectric matrix)
  average eigenvalue GAMMA=   1.5632
  3.0786  2.3146  0.9899  0.8133  0.6198

 Free energy of the ion-electron system (eV)
  ---------------------------------------------------
  alpha Z        PSCENC =       106.58810953
  Ewald energy   TEWEN  =    182298.06005929
  -Hartree energ DENC   =   -195470.12659698
  -exchange      EXHF   =         0.00000000
  -V(xc)+E(xc)   XCENC  =      1586.03026067
  PAW double counting   =     48559.16363039   -48625.04806734
  entropy T*S    EENTRO =        -0.01909458
  eigenvalues    EBANDS =     -4813.68364626
  atomic energy  EATOM  =     15506.18949415
  Solvation  Ediel_sol  =         0.00000000
  ---------------------------------------------------
  free energy    TOTEN  =      -852.84585112 eV

  energy without entropy =     -852.82675654  energy(sigma->0) =     -852.83630383


--------------------------------------------------------------------------------------------------------




--------------------------------------- Iteration      1(  11)  ---------------------------------------


    POTLOK:  cpu time    0.2672: real time    0.2686
    SETDIJ:  cpu time    0.0147: real time    0.0147
     EDDAV:  cpu time   49.2929: real time   49.5622
       DOS:  cpu time    0.0011: real time    0.0011
    CHARGE:  cpu time    1.2949: real time    1.3024
    MIXING:  cpu time    0.0081: real time    0.0081
    --------------------------------------------
      LOOP:  cpu time   50.8788: real time   51.1571

 eigenvalue-minimisations  :  7660
 total energy-change (2. order) :-0.5990764E+02  (-0.3457177E+01)
 number of electron     433.0000231 magnetization      56.4076611
 augmentation part       10.3708096 magnetization      55.0099326

 Broyden mixing:
  rms(total) = 0.10310E+01    rms(broyden)= 0.10309E+01
  rms(prec ) = 0.10320E+01
  weight for this iteration     100.00

 eigenvalues of (default mixing * dielectric matrix)
  average eigenvalue GAMMA=   1.7338
  4.1314  2.5242  1.4240  0.9730  0.7361  0.6139

 Free energy of the ion-electron system (eV)
  ---------------------------------------------------
  alpha Z        PSCENC =       106.58810953
  Ewald energy   TEWEN  =    182298.06005929
  -Hartree energ DENC   =   -195487.58822203
  -exchange      EXHF   =         0.00000000
  -V(xc)+E(xc)   XCENC  =      1548.88052158
  PAW double counting   =     48027.98906475   -48092.62026602
  entropy T*S    EENTRO =        -0.00392904
  eigenvalues    EBANDS =     -4820.24832273
  atomic energy  EATOM  =     15506.18949415
  Solvation  Ediel_sol  =         0.00000000
  ---------------------------------------------------
  free energy    TOTEN  =      -912.75349053 eV

  energy without entropy =     -912.74956149  energy(sigma->0) =     -912.75152601


--------------------------------------------------------------------------------------------------------




--------------------------------------- Iteration      1(  12)  ---------------------------------------


    POTLOK:  cpu time    0.2738: real time    0.2751
    SETDIJ:  cpu time    0.0155: real time    0.0155
     EDDAV:  cpu time   47.5813: real time   47.8361
       DOS:  cpu time    0.0012: real time    0.0012
    CHARGE:  cpu time    1.2997: real time    1.3072
    MIXING:  cpu time    0.0088: real time    0.0089
    --------------------------------------------
      LOOP:  cpu time   49.1802: real time   49.4439

 eigenvalue-minimisations  :  7470
 total energy-change (2. order) :-0.5376509E+02  (-0.5415076E+01)
 number of electron     433.0000225 magnetization      44.8601990
 augmentation part       10.2674189 magnetization      43.7066761

 Broyden mixing:
  rms(total) = 0.67989E+00    rms(broyden)= 0.67966E+00
  rms(prec ) = 0.68174E+00
  weight for this iteration     100.00

 eigenvalues of (default mixing * dielectric matrix)
  average eigenvalue GAMMA=   2.2073
  7.6395  2.6221  1.9642  1.0979  0.8215  0.7000  0.6063

 Free energy of the ion-electron system (eV)
  ---------------------------------------------------
  alpha Z        PSCENC =       106.58810953
  Ewald energy   TEWEN  =    182298.06005929
  -Hartree energ DENC   =   -195484.79922590
  -exchange      EXHF   =         0.00000000
  -V(xc)+E(xc)   XCENC  =      1515.27400607
  PAW double counting   =     45552.59873510   -45617.41504985
  entropy T*S    EENTRO =        -0.00003971
  eigenvalues    EBANDS =     -4843.01467030
  atomic energy  EATOM  =     15506.18949415
  Solvation  Ediel_sol  =         0.00000000
  ---------------------------------------------------
  free energy    TOTEN  =      -966.51858162 eV

  energy without entropy =     -966.51854191  energy(sigma->0) =     -966.51856177


--------------------------------------------------------------------------------------------------------




--------------------------------------- Iteration      1(  13)  ---------------------------------------


    POTLOK:  cpu time    0.2684: real time    0.4104
    SETDIJ:  cpu time    0.0149: real time    0.0149
     EDDAV:  cpu time   48.9989: real time   49.2629
       DOS:  cpu time    0.0013: real time    0.0013
    CHARGE:  cpu time    1.2814: real time    1.2884
    MIXING:  cpu time    0.0099: real time    0.0099
    --------------------------------------------
      LOOP:  cpu time   50.5746: real time   50.9879

 eigenvalue-minimisations  :  7730
 total energy-change (2. order) :-0.1676012E+02  (-0.1365360E+01)
 number of electron     433.0000223 magnetization      39.9200726
 augmentation part       10.2370709 magnetization      38.8788289

 Broyden mixing:
  rms(total) = 0.51257E+00    rms(broyden)= 0.51242E+00
  rms(prec ) = 0.51476E+00
  weight for this iteration     100.00

 eigenvalues of (default mixing * dielectric matrix)
  average eigenvalue GAMMA=   2.2560
  9.0815  2.3760  2.3760  1.0776  1.0776  0.7765  0.6718  0.6110

 Free energy of the ion-electron system (eV)
  ---------------------------------------------------
  alpha Z        PSCENC =       106.58810953
  Ewald energy   TEWEN  =    182298.06005929
  -Hartree energ DENC   =   -195443.72232879
  -exchange      EXHF   =         0.00000000
  -V(xc)+E(xc)   XCENC  =      1501.80259929
  PAW double counting   =     44139.21186016   -44204.24443100
  entropy T*S    EENTRO =        -0.00008419
  eigenvalues    EBANDS =     -4887.16397587
  atomic energy  EATOM  =     15506.18949415
  Solvation  Ediel_sol  =         0.00000000
  ---------------------------------------------------
  free energy    TOTEN  =      -983.27869743 eV

  energy without entropy =     -983.27861325  energy(sigma->0) =     -983.27865534


--------------------------------------------------------------------------------------------------------




--------------------------------------- Iteration      1(  14)  ---------------------------------------


    POTLOK:  cpu time    0.2682: real time    0.2695
    SETDIJ:  cpu time    0.0148: real time    0.0149
     EDDAV:  cpu time   49.5563: real time   49.8189
       DOS:  cpu time    0.0010: real time    0.0010
    CHARGE:  cpu time    1.2982: real time    1.3058
    MIXING:  cpu time    0.0093: real time    0.0093
    --------------------------------------------
      LOOP:  cpu time   51.1478: real time   51.4194

 eigenvalue-minimisations  :  7740
 total energy-change (2. order) :-0.5587333E+01  (-0.7905845E-01)
 number of electron     433.0000222 magnetization      32.3995994
 augmentation part       10.2179166 magnetization      31.3740197

 Broyden mixing:
  rms(total) = 0.44409E+00    rms(broyden)= 0.44407E+00
  rms(prec ) = 0.44569E+00
  weight for this iteration     100.00

 eigenvalues of (default mixing * dielectric matrix)
  average eigenvalue GAMMA=   2.2865
  9.9475  2.5557  2.5557  1.5113  1.0502  0.9242  0.7598  0.6145  0.6595

 Free energy of the ion-electron system (eV)
  ---------------------------------------------------
  alpha Z        PSCENC =       106.58810953
  Ewald energy   TEWEN  =    182298.06005929
  -Hartree energ DENC   =   -195413.02312965
  -exchange      EXHF   =         0.00000000
  -V(xc)+E(xc)   XCENC  =      1496.50308577
  PAW double counting   =     44466.56274550   -44531.83729549
  entropy T*S    EENTRO =        -0.00029294
  eigenvalues    EBANDS =     -4917.90880680
  atomic energy  EATOM  =     15506.18949415
  Solvation  Ediel_sol  =         0.00000000
  ---------------------------------------------------
  free energy    TOTEN  =      -988.86603064 eV

  energy without entropy =     -988.86573770  energy(sigma->0) =     -988.86588417


--------------------------------------------------------------------------------------------------------




--------------------------------------- Iteration      1(  15)  ---------------------------------------


    POTLOK:  cpu time    0.2684: real time    0.2697
    SETDIJ:  cpu time    0.0149: real time    0.0149
     EDDAV:  cpu time   47.5355: real time   47.7875
       DOS:  cpu time    0.0012: real time    0.0012
    CHARGE:  cpu time    1.3044: real time    1.3120
    MIXING:  cpu time    0.0091: real time    0.0092
    --------------------------------------------
      LOOP:  cpu time   49.1335: real time   49.3945

 eigenvalue-minimisations  :  7400
 total energy-change (2. order) :-0.5142606E+01  (-0.6719698E-01)
 number of electron     433.0000223 magnetization      25.0290111
 augmentation part       10.2245828 magnetization      24.0334293

 Broyden mixing:
  rms(total) = 0.36495E+00    rms(broyden)= 0.36494E+00
  rms(prec ) = 0.36564E+00
  weight for this iteration     100.00

 eigenvalues of (default mixing * dielectric matrix)
  average eigenvalue GAMMA=   2.3410
 10.6163  3.2719  2.5028  2.0264  1.0977  1.0977  0.7627  0.7627  0.6154  0.6566

 Free energy of the ion-electron system (eV)
  ---------------------------------------------------
  alpha Z        PSCENC =       106.58810953
  Ewald energy   TEWEN  =    182298.06005929
  -Hartree energ DENC   =   -195315.87985214
  -exchange      EXHF   =         0.00000000
  -V(xc)+E(xc)   XCENC  =      1489.95814760
  PAW double counting   =     44325.12321647   -44390.46753786
  entropy T*S    EENTRO =        -0.00643617
  eigenvalues    EBANDS =     -5013.57383781
  atomic energy  EATOM  =     15506.18949415
  Solvation  Ediel_sol  =         0.00000000
  ---------------------------------------------------
  free energy    TOTEN  =      -994.00863694 eV

  energy without entropy =     -994.00220078  energy(sigma->0) =     -994.00541886


--------------------------------------------------------------------------------------------------------




--------------------------------------- Iteration      1(  16)  ---------------------------------------


    POTLOK:  cpu time    0.2761: real time    0.2775
    SETDIJ:  cpu time    0.0142: real time    0.0142
     EDDAV:  cpu time   47.2715: real time   47.5244
       DOS:  cpu time    0.0014: real time    0.0014
    CHARGE:  cpu time    1.2960: real time    1.3029
    MIXING:  cpu time    0.0098: real time    0.0099
    --------------------------------------------
      LOOP:  cpu time   48.8690: real time   49.1303

 eigenvalue-minimisations  :  7470
 total energy-change (2. order) :-0.4858268E+01  (-0.4447005E-01)
 number of electron     433.0000223 magnetization      15.1567122
 augmentation part       10.2341377 magnetization      14.2351473

 Broyden mixing:
  rms(total) = 0.29483E+00    rms(broyden)= 0.29483E+00
  rms(prec ) = 0.29593E+00
  weight for this iteration     100.00

 eigenvalues of (default mixing * dielectric matrix)
  average eigenvalue GAMMA=   2.3922
 11.1494  4.2591  2.3726  2.3726  1.3158  1.0425  1.0425  0.7557  0.7359  0.6156
  0.6523

 Free energy of the ion-electron system (eV)
  ---------------------------------------------------
  alpha Z        PSCENC =       106.58810953
  Ewald energy   TEWEN  =    182298.06005929
  -Hartree energ DENC   =   -195237.60940375
  -exchange      EXHF   =         0.00000000
  -V(xc)+E(xc)   XCENC  =      1484.31170277
  PAW double counting   =     44417.72466579   -44482.99304086
  entropy T*S    EENTRO =        -0.01863861
  eigenvalues    EBANDS =     -5091.11985344
  atomic energy  EATOM  =     15506.18949415
  Solvation  Ediel_sol  =         0.00000000
  ---------------------------------------------------
  free energy    TOTEN  =      -998.86690513 eV

  energy without entropy =     -998.84826652  energy(sigma->0) =     -998.85758583


--------------------------------------------------------------------------------------------------------




--------------------------------------- Iteration      1(  17)  ---------------------------------------


    POTLOK:  cpu time    0.2743: real time    0.2756
    SETDIJ:  cpu time    0.0145: real time    0.0146
     EDDAV:  cpu time   48.7053: real time   48.9639
       DOS:  cpu time    0.0011: real time    0.0011
    CHARGE:  cpu time    1.2989: real time    1.3059
    MIXING:  cpu time    0.0107: real time    0.0107
    --------------------------------------------
      LOOP:  cpu time   50.3047: real time   50.5717

 eigenvalue-minimisations  :  7690
 total energy-change (2. order) :-0.5112594E+01  (-0.2912365E-01)
 number of electron     433.0000223 magnetization       7.1385352
 augmentation part       10.2281722 magnetization       6.1620758

 Broyden mixing:
  rms(total) = 0.19139E+00    rms(broyden)= 0.19139E+00
  rms(prec ) = 0.19234E+00
  weight for this iteration     100.00

 eigenvalues of (default mixing * dielectric matrix)
  average eigenvalue GAMMA=   2.7155
 13.0299  6.8508  2.5861  2.5861  1.7944  1.0930  1.0930  0.8332  0.7315  0.7315
  0.6164  0.6400

 Free energy of the ion-electron system (eV)
  ---------------------------------------------------
  alpha Z        PSCENC =       106.58810953
  Ewald energy   TEWEN  =    182298.06005929
  -Hartree energ DENC   =   -195193.22078069
  -exchange      EXHF   =         0.00000000
  -V(xc)+E(xc)   XCENC  =      1479.32861351
  PAW double counting   =     44819.80445709   -44885.03304116
  entropy T*S    EENTRO =        -0.00841974
  eigenvalues    EBANDS =     -5135.68799131
  atomic energy  EATOM  =     15506.18949415
  Solvation  Ediel_sol  =         0.00000000
  ---------------------------------------------------
  free energy    TOTEN  =     -1003.97949933 eV

  energy without entropy =    -1003.97107959  energy(sigma->0) =    -1003.97528946


--------------------------------------------------------------------------------------------------------




--------------------------------------- Iteration      1(  18)  ---------------------------------------


    POTLOK:  cpu time    0.2753: real time    0.2766
    SETDIJ:  cpu time    0.0140: real time    0.0141
     EDDAV:  cpu time   47.4744: real time   47.7280
       DOS:  cpu time    0.0018: real time    0.0018
    CHARGE:  cpu time    1.2987: real time    1.3060
    MIXING:  cpu time    0.0103: real time    0.0104
    --------------------------------------------
      LOOP:  cpu time   49.0747: real time   49.3370

 eigenvalue-minimisations  :  7450
 total energy-change (2. order) :-0.4711407E+01  (-0.2448400E-01)
 number of electron     433.0000223 magnetization       4.1517380
 augmentation part       10.2282263 magnetization       3.1673878

 Broyden mixing:
  rms(total) = 0.11334E+00    rms(broyden)= 0.11333E+00
  rms(prec ) = 0.11563E+00
  weight for this iteration     100.00

 eigenvalues of (default mixing * dielectric matrix)
  average eigenvalue GAMMA=   2.9147
 15.5693  8.1840  2.6939  2.6939  1.9373  1.1096  1.0968  1.0968  0.8049  0.7300
  0.7238  0.6166  0.6342

 Free energy of the ion-electron system (eV)
  ---------------------------------------------------
  alpha Z        PSCENC =       106.58810953
  Ewald energy   TEWEN  =    182298.06005929
  -Hartree energ DENC   =   -195159.88105599
  -exchange      EXHF   =         0.00000000
  -V(xc)+E(xc)   XCENC  =      1474.74113548
  PAW double counting   =     44828.03792084   -44893.25261663
  entropy T*S    EENTRO =        -0.00516909
  eigenvalues    EBANDS =     -5169.16878352
  atomic energy  EATOM  =     15506.18949415
  Solvation  Ediel_sol  =         0.00000000
  ---------------------------------------------------
  free energy    TOTEN  =     -1008.69090594 eV

  energy without entropy =    -1008.68573685  energy(sigma->0) =    -1008.68832139


--------------------------------------------------------------------------------------------------------




--------------------------------------- Iteration      1(  19)  ---------------------------------------


    POTLOK:  cpu time    0.2744: real time    0.2759
    SETDIJ:  cpu time    0.0143: real time    0.0144
     EDDAV:  cpu time   49.0653: real time   49.3309
       DOS:  cpu time    0.0012: real time    0.0012
    CHARGE:  cpu time    1.2915: real time    1.2983
    MIXING:  cpu time    0.0129: real time    0.0130
    --------------------------------------------
      LOOP:  cpu time   50.6598: real time   50.9337

 eigenvalue-minimisations  :  7730
 total energy-change (2. order) :-0.2329590E+01  (-0.7441369E-02)
 number of electron     433.0000223 magnetization       2.1561032
 augmentation part       10.2284823 magnetization       1.1837439

 Broyden mixing:
  rms(total) = 0.70743E-01    rms(broyden)= 0.70738E-01
  rms(prec ) = 0.72755E-01
  weight for this iteration     100.00

 eigenvalues of (default mixing * dielectric matrix)
  average eigenvalue GAMMA=   3.1480
 19.1096  9.0104  3.0050  2.6564  2.1863  1.5949  1.0735  1.0735  0.9258  0.7724
  0.7348  0.6849  0.6155  0.6288

 Free energy of the ion-electron system (eV)
  ---------------------------------------------------
  alpha Z        PSCENC =       106.58810953
  Ewald energy   TEWEN  =    182298.06005929
  -Hartree energ DENC   =   -195158.21989564
  -exchange      EXHF   =         0.00000000
  -V(xc)+E(xc)   XCENC  =      1472.59308883
  PAW double counting   =     44664.86466190   -44730.09564738
  entropy T*S    EENTRO =        -0.00734429
  eigenvalues    EBANDS =     -5170.99302183
  atomic energy  EATOM  =     15506.18949415
  Solvation  Ediel_sol  =         0.00000000
  ---------------------------------------------------
  free energy    TOTEN  =     -1011.02049545 eV

  energy without entropy =    -1011.01315116  energy(sigma->0) =    -1011.01682330


--------------------------------------------------------------------------------------------------------




--------------------------------------- Iteration      1(  20)  ---------------------------------------


    POTLOK:  cpu time    0.2747: real time    0.2760
    SETDIJ:  cpu time    0.0142: real time    0.0142
     EDDAV:  cpu time   47.7142: real time   47.9741
       DOS:  cpu time    0.0013: real time    0.0013
    CHARGE:  cpu time    1.3132: real time    1.3205
    MIXING:  cpu time    0.0128: real time    0.0128
    --------------------------------------------
      LOOP:  cpu time   49.3302: real time   49.5988

 eigenvalue-minimisations  :  7480
 total energy-change (2. order) :-0.1327921E+01  (-0.7096587E-02)
 number of electron     433.0000223 magnetization       1.6328562
 augmentation part       10.2274736 magnetization       0.6757796

 Broyden mixing:
  rms(total) = 0.41763E-01    rms(broyden)= 0.41757E-01
  rms(prec ) = 0.43532E-01
  weight for this iteration     100.00

 eigenvalues of (default mixing * dielectric matrix)
  average eigenvalue GAMMA=   3.1874
 20.9526  9.3301  3.3492  2.4851  2.4851  1.7300  1.1199  1.1199  0.9873  0.8653
  0.7402  0.7402  0.6690  0.6130  0.6246

 Free energy of the ion-electron system (eV)
  ---------------------------------------------------
  alpha Z        PSCENC =       106.58810953
  Ewald energy   TEWEN  =    182298.06005929
  -Hartree energ DENC   =   -195167.78999180
  -exchange      EXHF   =         0.00000000
[...]
   -.481E+03 -.942E+01 0.291E+03   0.481E+03 0.947E+01 -.291E+03   -.268E+00 -.582E-01 -.428E-01   0.712E-04 0.344E-03 0.758E-05
   -.481E+03 -.943E+01 0.291E+03   0.481E+03 0.949E+01 -.291E+03   -.267E+00 -.576E-01 -.428E-01   0.705E-04 0.344E-03 0.795E-05
   -.633E+03 0.353E+02 0.245E+03   0.634E+03 -.356E+02 -.245E+03   -.848E+00 0.321E+00 -.472E-01   0.442E-03 -.393E-03 0.957E-04
   -.633E+03 0.353E+02 0.245E+03   0.634E+03 -.356E+02 -.245E+03   -.848E+00 0.321E+00 -.507E-01   0.440E-03 -.398E-03 0.954E-04
   -.567E+00 0.103E+01 0.367E+03   0.568E+00 -.102E+01 -.367E+03   -.182E-02 -.194E-01 -.288E-01   -.429E-03 0.698E-04 -.107E-03
   -.558E+00 0.102E+01 0.367E+03   0.560E+00 -.100E+01 -.367E+03   -.111E-02 -.205E-01 -.303E-01   -.423E-03 0.621E-04 -.108E-03
   -.257E+03 0.163E+01 0.344E+03   0.257E+03 -.161E+01 -.344E+03   -.178E-01 -.182E-01 -.339E-01   -.625E-03 0.120E-03 -.985E-04
   -.257E+03 0.161E+01 0.344E+03   0.257E+03 -.159E+01 -.344E+03   -.171E-01 -.158E-01 -.330E-01   -.622E-03 0.122E-03 -.985E-04
   -.354E+03 0.710E+00 0.323E+03   0.354E+03 -.755E+00 -.323E+03   -.166E+00 0.454E-01 -.376E-01   -.353E-03 -.277E-03 -.544E-04
   -.354E+03 0.706E+00 0.323E+03   0.354E+03 -.750E+00 -.323E+03   -.165E+00 0.463E-01 -.378E-01   -.353E-03 -.280E-03 -.550E-04
   -.809E+02 -.312E+00 -.365E+03   0.809E+02 0.302E+00 0.365E+03   -.196E-01 0.392E-02 0.196E-01   -.417E-03 -.140E-03 0.119E-03
   -.809E+02 -.322E+00 -.365E+03   0.809E+02 0.313E+00 0.365E+03   -.205E-01 0.450E-02 0.198E-01   -.410E-03 -.138E-03 0.119E-03
   -.167E+03 -.941E+00 -.357E+03   0.167E+03 0.925E+00 0.357E+03   -.111E-01 0.824E-02 0.297E-01   -.317E-03 0.101E-03 0.121E-03
   -.167E+03 -.943E+00 -.357E+03   0.167E+03 0.928E+00 0.357E+03   -.108E-01 0.818E-02 0.284E-01   -.313E-03 0.991E-04 0.121E-03
   -.481E+03 -.967E+01 -.291E+03   0.481E+03 0.973E+01 0.291E+03   -.267E+00 -.588E-01 0.486E-01   0.472E-04 0.315E-03 -.471E-05
   -.481E+03 -.968E+01 -.291E+03   0.481E+03 0.973E+01 0.291E+03   -.266E+00 -.593E-01 0.468E-01   0.474E-04 0.325E-03 -.415E-05
   -.634E+03 0.357E+02 -.244E+03   0.634E+03 -.361E+02 0.244E+03   -.842E+00 0.322E+00 0.237E-01   0.443E-03 -.383E-03 -.939E-04
   -.634E+03 0.357E+02 -.244E+03   0.634E+03 -.361E+02 0.244E+03   -.843E+00 0.322E+00 0.250E-01   0.450E-03 -.388E-03 -.949E-04
   -.565E+00 0.102E+01 -.367E+03   0.568E+00 -.101E+01 0.367E+03   -.147E-02 -.222E-01 0.216E-01   -.417E-03 0.437E-04 0.111E-03
   -.557E+00 0.103E+01 -.367E+03   0.559E+00 -.101E+01 0.367E+03   -.223E-02 -.225E-01 0.237E-01   -.419E-03 0.370E-04 0.111E-03
   -.257E+03 0.158E+01 -.344E+03   0.257E+03 -.157E+01 0.344E+03   -.249E-01 -.212E-01 0.226E-01   -.609E-03 0.940E-04 0.101E-03
   -.257E+03 0.157E+01 -.344E+03   0.257E+03 -.155E+01 0.344E+03   -.242E-01 -.195E-01 0.234E-01   -.613E-03 0.974E-04 0.101E-03
   -.354E+03 0.816E+00 -.323E+03   0.354E+03 -.860E+00 0.323E+03   -.162E+00 0.423E-01 0.324E-01   -.353E-03 -.239E-03 0.530E-04
   -.354E+03 0.809E+00 -.323E+03   0.354E+03 -.852E+00 0.323E+03   -.162E+00 0.427E-01 0.320E-01   -.362E-03 -.246E-03 0.524E-04
   -.634E+03 -.357E+02 0.244E+03   0.634E+03 0.361E+02 -.244E+03   -.843E+00 -.322E+00 -.254E-01   0.448E-03 0.382E-03 0.943E-04
   -.634E+03 -.357E+02 0.244E+03   0.634E+03 0.361E+02 -.244E+03   -.842E+00 -.323E+00 -.228E-01   0.446E-03 0.383E-03 0.945E-04
   -.565E+00 -.103E+01 0.367E+03   0.567E+00 0.101E+01 -.367E+03   -.102E-02 0.224E-01 -.240E-01   -.421E-03 -.414E-04 -.109E-03
   -.555E+00 -.102E+01 0.367E+03   0.557E+00 0.100E+01 -.367E+03   -.184E-02 0.216E-01 -.212E-01   -.417E-03 -.412E-04 -.109E-03
   -.809E+02 0.311E+00 0.365E+03   0.810E+02 -.301E+00 -.365E+03   -.201E-01 -.342E-02 -.200E-01   -.414E-03 0.141E-03 -.118E-03
   -.809E+02 0.324E+00 0.365E+03   0.809E+02 -.315E+00 -.365E+03   -.207E-01 -.388E-02 -.195E-01   -.414E-03 0.136E-03 -.118E-03
   -.354E+03 -.817E+00 0.323E+03   0.354E+03 0.862E+00 -.323E+03   -.163E+00 -.419E-01 -.317E-01   -.360E-03 0.242E-03 -.526E-04
   -.354E+03 -.815E+00 0.323E+03   0.354E+03 0.859E+00 -.323E+03   -.162E+00 -.425E-01 -.322E-01   -.358E-03 0.242E-03 -.529E-04
   -.481E+03 0.969E+01 0.291E+03   0.481E+03 -.974E+01 -.291E+03   -.266E+00 0.588E-01 -.484E-01   0.486E-04 -.317E-03 0.502E-05
   -.481E+03 0.967E+01 0.291E+03   0.481E+03 -.972E+01 -.291E+03   -.267E+00 0.602E-01 -.461E-01   0.492E-04 -.317E-03 0.407E-05
   -.167E+03 0.941E+00 0.357E+03   0.167E+03 -.925E+00 -.357E+03   -.101E-01 -.842E-02 -.284E-01   -.310E-03 -.976E-04 -.120E-03
   -.167E+03 0.933E+00 0.357E+03   0.167E+03 -.917E+00 -.357E+03   -.109E-01 -.790E-02 -.301E-01   -.310E-03 -.988E-04 -.120E-03
   -.257E+03 -.158E+01 0.344E+03   0.257E+03 0.156E+01 -.344E+03   -.245E-01 0.219E-01 -.227E-01   -.608E-03 -.943E-04 -.101E-03
   -.257E+03 -.159E+01 0.344E+03   0.257E+03 0.157E+01 -.344E+03   -.244E-01 0.205E-01 -.235E-01   -.607E-03 -.996E-04 -.101E-03
   -.194E+03 -.188E+02 0.498E+02   0.199E+03 0.215E+02 -.498E+02   -.509E+01 -.267E+01 -.414E-01   0.136E-03 0.899E-04 0.479E-04
   -.194E+03 -.188E+02 0.498E+02   0.199E+03 0.215E+02 -.498E+02   -.509E+01 -.267E+01 -.423E-01   0.136E-03 0.907E-04 0.478E-04
   -.194E+03 -.189E+02 -.498E+02   0.199E+03 0.216E+02 0.498E+02   -.509E+01 -.268E+01 0.576E-01   0.133E-03 0.888E-04 -.482E-04
   -.194E+03 -.189E+02 -.498E+02   0.199E+03 0.216E+02 0.498E+02   -.509E+01 -.268E+01 0.566E-01   0.134E-03 0.904E-04 -.480E-04
   -.194E+03 0.189E+02 0.498E+02   0.199E+03 -.216E+02 -.498E+02   -.509E+01 0.268E+01 -.570E-01   0.133E-03 -.887E-04 0.481E-04
   -.194E+03 0.189E+02 0.498E+02   0.199E+03 -.216E+02 -.498E+02   -.509E+01 0.268E+01 -.571E-01   0.132E-03 -.896E-04 0.478E-04
   -.194E+03 0.188E+02 -.498E+02   0.199E+03 -.215E+02 0.498E+02   -.509E+01 0.267E+01 0.410E-01   0.137E-03 -.916E-04 -.481E-04
   -.194E+03 0.188E+02 -.498E+02   0.199E+03 -.215E+02 0.498E+02   -.509E+01 0.267E+01 0.426E-01   0.135E-03 -.897E-04 -.479E-04
   0.193E+03 0.189E+02 -.500E+02   -.199E+03 -.215E+02 0.499E+02   0.509E+01 0.267E+01 0.419E-01   -.151E-03 -.558E-05 -.714E-04
   0.193E+03 0.187E+02 -.500E+02   -.198E+03 -.214E+02 0.500E+02   0.509E+01 0.267E+01 0.425E-01   -.147E-03 0.210E-04 -.574E-04
   0.193E+03 0.189E+02 0.500E+02   -.199E+03 -.216E+02 -.499E+02   0.509E+01 0.268E+01 -.590E-01   -.139E-03 0.394E-05 0.531E-04
   0.194E+03 0.188E+02 0.500E+02   -.199E+03 -.215E+02 -.500E+02   0.509E+01 0.268E+01 -.566E-01   -.160E-03 0.206E-04 0.766E-04
   0.193E+03 -.189E+02 -.500E+02   -.199E+03 0.216E+02 0.500E+02   0.509E+01 -.268E+01 0.578E-01   -.142E-03 -.145E-04 -.496E-04
   0.194E+03 -.189E+02 -.500E+02   -.199E+03 0.216E+02 0.499E+02   0.509E+01 -.268E+01 0.574E-01   -.165E-03 -.321E-05 -.858E-04
   0.193E+03 -.188E+02 0.500E+02   -.199E+03 0.214E+02 -.500E+02   0.509E+01 -.267E+01 -.411E-01   -.161E-03 -.189E-04 0.755E-04
   0.193E+03 -.189E+02 0.500E+02   -.198E+03 0.215E+02 -.499E+02   0.509E+01 -.267E+01 -.437E-01   -.146E-03 -.115E-05 0.521E-04
   0.731E+02 -.601E-03 0.231E-02   -.730E+02 0.146E-02 -.184E-02   -.810E-01 -.147E-02 -.214E-03   0.712E-03 0.317E-06 -.186E-05
 -----------------------------------------------------------------------------------------------
   0.315E+00 0.461E-03 0.233E-02   0.350E-11 -.958E-13 0.466E-12   -.301E+00 -.986E-03 -.115E-02   -.146E-01 -.740E-05 -.231E-04


 POSITION                                       TOTAL-FORCE (eV/Angst)
 -----------------------------------------------------------------------------------
     17.37676      0.02542     12.12144        -0.000022      0.001059      0.004696
     17.37681      4.29895     12.12152        -0.002039     -0.001175      0.003382
     16.14538      2.16183     12.12266         0.001011      0.003387     -0.002592
     16.14538      6.43536     12.12268        -0.002359      0.001015     -0.002634
     12.44189      0.02290     12.12382         0.002062      0.003040      0.003780
     12.44179      4.29640     12.12399         0.003021      0.002241      0.002158
     11.23502      2.19232     12.13004         0.001746      0.004315      0.003384
     11.23508      6.46575     12.12967        -0.000607      0.006729      0.002676
     14.91222      0.02978     12.12315        -0.000772      0.002295     -0.000302
     14.91215      4.30324     12.12307         0.000475      0.002401      0.001697
     13.67327      2.16294     12.12263        -0.000480      0.001086     -0.001481
     13.67340      6.43642     12.12256        -0.001522      0.002448     -0.001555
     17.37678      8.52144     15.68159        -0.004109      0.001511     -0.004010
     17.37672      4.24800     15.68161         0.000482      0.001217     -0.004343
     16.14534      2.11159     15.68036        -0.001138     -0.000753      0.003095
     16.14531      6.38504     15.68039        -0.000407     -0.001444      0.002076
     12.44177      8.52402     15.67918         0.004556     -0.001945     -0.003118
     12.44179      4.25057     15.67915         0.000447     -0.004242     -0.002795
     11.23495      2.08111     15.67333         0.002214     -0.002766     -0.003710
     11.23506      6.35469     15.67319        -0.003330     -0.008250     -0.002164
     14.91211      8.51712     15.67991         0.001421     -0.000300     -0.000566
     14.91213      4.24367     15.67992        -0.000820     -0.002304     -0.000795
     13.67320      2.11050     15.68044        -0.001479     -0.000521      0.001696
     13.67332      6.38399     15.68044        -0.000784     -0.002983      0.001469
     17.37673      1.45102     12.12132        -0.000056      0.006086      0.002840
     17.37664      5.72452     12.12131         0.002904      0.005898      0.003019
     16.14524      3.58891     12.12250         0.004006      0.005683     -0.003767
     16.14524      7.86239     12.12244         0.002450      0.005887     -0.002765
     12.44214      1.45692     12.12388         0.002210      0.000908     -0.000515
     12.44222      5.73041     12.12371         0.003345     -0.000267      0.001095
     11.23450      3.56097     12.12895        -0.001542     -0.003011      0.001036
     11.23456      7.83444     12.12857        -0.003274     -0.002554     -0.000015
     14.91211      1.44879     12.12253        -0.000117      0.003796      0.001428
     14.91213      5.72230     12.12259         0.002923      0.001546      0.000773
     13.67309      3.58987     12.12263        -0.004546      0.003074     -0.001499
     13.67320      7.86337     12.12256        -0.002922      0.001219     -0.001151
     11.23448      0.71249     15.67434        -0.002894      0.001283      0.000120
     11.23446      4.98598     15.67435        -0.001257      0.003827     -0.000990
     17.37666      2.82247     15.68173         0.001120     -0.009569     -0.002497
     17.37661      7.09587     15.68178         0.001588     -0.006602     -0.003314
     13.67308      0.68360     15.68043        -0.003228     -0.004405      0.001447
     13.67309      4.95704     15.68042        -0.002787     -0.001115      0.001494
     12.44205      2.81653     15.67928         0.002564     -0.000304      0.000030
     12.44215      7.09003     15.67932         0.004883     -0.000413     -0.001178
     16.14519      0.68455     15.68061         0.003529     -0.007893      0.002558
     16.14519      4.95801     15.68055         0.002104     -0.006515      0.003898
     14.91200      2.82464     15.68050         0.001162     -0.003622     -0.001485
     14.91208      7.09808     15.68041         0.000412     -0.002234     -0.000502
     19.84672      8.52144     15.68163         0.000329      0.001117     -0.004499
     19.84668      4.24793     15.68157         0.001097      0.002549     -0.003654
     21.07811      6.38506     15.68040         0.000636     -0.002660      0.002555
     21.07810      2.11157     15.68039         0.000321     -0.002328      0.002822
     24.78151      8.52398     15.67930        -0.000175     -0.002193     -0.003816
     24.78159      4.25054     15.67913        -0.003086     -0.002696     -0.002032
     25.98840      6.35459     15.67323         0.000797     -0.003640     -0.003258
     25.98841      2.08115     15.67339         0.001284     -0.007692     -0.002945
     18.61171      6.38266     15.68156         0.000235      0.004109     -0.001292
     18.61170      2.10919     15.68158         0.000867      0.004613     -0.002602
     22.31122      8.51714     15.67992         0.001567     -0.002957      0.000212
     22.31125      4.24362     15.67997         0.000847     -0.002183     -0.001336
     23.55007      6.38392     15.68049         0.000434     -0.000223      0.001185
     23.55012      2.11046     15.68052         0.001673     -0.002271      0.001596
     19.84671      0.02547     12.12147         0.002103     -0.001272      0.004245
     19.84676      4.29892     12.12148        -0.000170     -0.000632      0.004054
     21.07819      6.43532     12.12269         0.000859      0.001511     -0.003057
     21.07816      2.16185     12.12266         0.000140      0.000882     -0.002120
     24.78165      0.02288     12.12386        -0.003297      0.001307      0.002907
     24.78163      4.29633     12.12387        -0.001099      0.004349      0.002675
     25.98847      6.46577     12.12967        -0.000140      0.004248      0.003957
     25.98845      2.19224     12.12990         0.002151      0.006742      0.001840
     18.61178      6.43768     12.12148        -0.000569     -0.003251      0.002464
     18.61178      2.16424     12.12155         0.000719     -0.003099      0.001538
     22.31131      0.02983     12.12313         0.000523     -0.000796      0.000343
     22.31130      4.30321     12.12309         0.001681      0.002988      0.001091
     23.55017      6.43645     12.12258        -0.000116     -0.000275     -0.001686
     23.55018      2.16294     12.12259         0.002469      0.001661     -0.001852
     19.84680      7.09587     15.68178        -0.000625     -0.006448     -0.003093
     19.84678      2.82237     15.68175        -0.001922     -0.005191     -0.002907
     21.07824      4.95799     15.68056        -0.004386     -0.007254      0.003725
     21.07823      0.68453     15.68063        -0.003964     -0.006510      0.002692
     24.78122      7.08995     15.67929        -0.003252     -0.000934      0.000403
     24.78126      2.81650     15.67937        -0.002402     -0.000480     -0.001006
     25.98896      4.98593     15.67433         0.002680      0.001145     -0.001188
     25.98894      0.71243     15.67450         0.001412      0.002581     -0.000158
     18.61171      4.96148     15.68190         0.000654     -0.005633     -0.001776
     18.61174      0.68802     15.68181        -0.000597     -0.006408     -0.000107
     22.31135      7.09812     15.68052        -0.002691     -0.003903     -0.001093
     22.31140      2.82457     15.68050        -0.002930     -0.001053     -0.000682
     23.55024      4.95701     15.68045         0.004943     -0.002517      0.001711
     23.55021      0.68353     15.68051         0.005277     -0.000808      0.001349
     25.98902      7.83442     12.12867         0.001836     -0.000346     -0.000055
     25.98902      3.56096     12.12867         0.002593     -0.003176      0.001570
     18.61174      7.85887     12.12126         0.000725      0.005612     -0.000082
     18.61178      3.58546     12.12119        -0.000377      0.004090      0.002005
     19.84687      5.72448     12.12132        -0.000419      0.007150      0.002749
     19.84685      1.45104     12.12131        -0.001802      0.005791      0.003147
     23.55031      7.86334     12.12258         0.003880      0.003551     -0.001222
     23.55032      3.58986     12.12259         0.004991      0.001426     -0.001494
     24.78130      5.73041     12.12375        -0.002805     -0.000117     -0.000323
     24.78134      1.45687     12.12373        -0.004080      0.002880      0.001392
     21.07827      7.86238     12.12244        -0.002294      0.007177     -0.002695
     21.07826      3.58887     12.12251        -0.003628      0.007703     -0.003970
     22.31146      5.72224     12.12254        -0.003034      0.004402      0.001171
     22.31147      1.44882     12.12259        -0.003261      0.003561      0.000337
     26.94668      8.35141     12.13677        -0.001126      0.002539     -0.000754
     26.94676      4.07789     12.13693        -0.002427      0.002460     -0.000954
     26.94532      6.87293     15.66297        -0.001771     -0.004484      0.001236
     26.94535      2.59941     15.66329        -0.001258     -0.003915      0.001088
     26.94537      5.94749     12.13982        -0.000340      0.003358     -0.001287
     26.94538      1.67392     12.14008        -0.001494      0.004559     -0.000981
     26.94662      0.19543     15.66648        -0.002042     -0.002153      0.000632
     26.94667      4.46901     15.66603        -0.001585     -0.002905      0.000979
     10.27689      0.19546     15.66620        -0.002565     -0.003225     -0.000070
     10.27680      4.46901     15.66610        -0.002931     -0.004390     -0.000332
     10.27814      1.67396     12.14050        -0.003697      0.004271      0.000131
     10.27822      5.94737     12.13971        -0.000967      0.003051     -0.000496
     10.27807      2.59942     15.66309        -0.005183     -0.002829     -0.000290
     10.27817      6.87307     15.66299         0.000252     -0.004041      0.000591
     10.27693      8.35148     12.13658        -0.000838      0.003611     -0.000053
     10.27683      4.07787     12.13740        -0.004258      0.003744      0.000474
      5.27814      2.83137     13.90123         0.025486     -0.000615      0.000249
 -----------------------------------------------------------------------------------
    total drift:                               -0.000294     -0.000531      0.001153


--------------------------------------------------------------------------------------------------------



  FREE ENERGIE OF THE ION-ELECTRON SYSTEM (eV)
  ---------------------------------------------------
  free  energy   TOTEN  =     -1019.09991801 eV

  energy  without entropy=    -1019.09167087  energy(sigma->0) =    -1019.09579444



--------------------------------------------------------------------------------------------------------


    POTLOK:  cpu time    0.2959: real time    0.4015


--------------------------------------------------------------------------------------------------------


 stress matrix after NEB project (eV)
    -11.94188      0.00116      0.00021
      0.00116      6.98924     -0.14107
      0.00021     -0.14107    -15.83036
  FORCES: max atom, RMS     0.025494    0.005517
  FORCE total and by dimension    0.060690    0.025486
  Stress total and by dimension   21.026127   15.830359
 writing wavefunctions
     LOOP+:  cpu time 1700.5699: real time 1710.9656
    4ORBIT:  cpu time    0.0000: real time    0.0000

 total amount of memory used by VASP MPI-rank0   315296. kBytes
=======================================================================

   base      :      30000. kBytes
   nonlr-proj:       4968. kBytes
   fftplans  :      16574. kBytes
   grid      :      43462. kBytes
   one-center:        190. kBytes
   wavefun   :     220102. kBytes

  
  
 General timing and accounting informations for this job:
 ========================================================
  
                  Total CPU time used (sec):     1738.037
                            User time (sec):     1730.677
                          System time (sec):        7.360
                         Elapsed time (sec):     1749.805
  
                   Maximum memory used (kb):      495636.
                   Average memory used (kb):           0.
  
                          Minor page faults:       684630
                          Major page faults:            3
                 Voluntary context switches:         7176
