 vasp.5.4.4.18Apr17-6-g9f103f2a35 (build Sep 10 2024 21:01:58) complex           
 executed on             LinuxGNU date 2025.04.14  16:05:53
 running on   40 total cores
 distrk:  each k-point on   40 cores,    1 groups
 distr:  one band on NCORES_PER_BAND=   4 cores,   10 groups


--------------------------------------------------------------------------------------------------------


 INCAR:
 POTCAR:    PAW_PBE C 08Apr2002                   
 POTCAR:    PAW_PBE H 15Jun2001                   
 POTCAR:    PAW_PBE Li 17Jan2003                  
 POTCAR:    PAW_PBE C 08Apr2002                   
   SHA256 =  253f7b50bb8d59471dbedb8285d89021f4a42ed1a2c5d38a03a736e69125dd95 C/
   COPYR  = (c) Copyright 08Apr2002 Georg Kresse                                
   COPYR  = This file is part of the software VASP. Any use, copying, and all ot
   COPYR  = If you do not have a valid VASP license, you may not use, copy or di
   VRHFIN =C: s2p2                                                              
   LEXCH  = PE                                                                  
   EATOM  =   147.1560 eV,   10.8157 Ry                                         
                                                                                
   TITEL  = PAW_PBE C 08Apr2002                                                 
   LULTRA =        F    use ultrasoft PP ?                                      
   IUNSCR =        1    unscreen: 0-lin 1-nonlin 2-no                           
   RPACOR =    1.200    partial core radius                                     
   POMASS =   12.011; ZVAL   =    4.000    mass and valenz                      
   RCORE  =    1.500    outmost cutoff radius                                   
   RWIGS  =    1.630; RWIGS  =    0.863    wigner-seitz radius (au A)           
   ENMAX  =  400.000; ENMIN  =  300.000 eV                                      
   ICORE  =        2    local potential                                         
   LCOR   =        T    correct aug charges                                     
   LPAW   =        T    paw PP                                                  
   EAUG   =  644.873                                                            
   DEXC   =    0.000                                                            
   RMAX   =    1.529    core radius for proj-oper                               
   RAUG   =    1.300    factor for augmentation sphere                          
   RDEP   =    1.501    radius for radial grids                                 
   RDEPT  =    1.300    core radius for aug-charge                              
                                                                                
   Atomic configuration                                                         
    4 entries                                                                   
     n  l   j            E        occ.                                          
     1  0  0.50      -273.3789   2.0000                                         
     2  0  0.50       -13.7508   2.0000                                         
     2  1  0.50        -5.2854   2.0000                                         
     3  2  1.50        -5.4423   0.0000                                         
   Description                                                                  
     l       E           TYP  RCUT    TYP  RCUT                                 
     0    -13.7508458     23  1.200                                             
     0     -8.2022199     23  1.200                                             
     1     -5.2854383     23  1.500                                             
     1     34.0145650     23  1.500                                             
     2     -5.4423304      7  1.500                                             
  local pseudopotential read in
  partial core-charges read in
  partial kinetic energy density read in
  atomic valenz-charges read in
  non local Contribution for L=           0  read in
    real space projection operators read in
  non local Contribution for L=           0  read in
    real space projection operators read in
  non local Contribution for L=           1  read in
    real space projection operators read in
  non local Contribution for L=           1  read in
    real space projection operators read in
    PAW grid and wavefunctions read in

   number of l-projection  operators is LMAX  =           4
   number of lm-projection operators is LMMAX =           8

 POTCAR:    PAW_PBE H 15Jun2001                   
   SHA256 =  030f79b5d3ab3cf0e668861823c8fb652ff669f3e15e46930bd03bfd63a607b6 H/
   COPYR  = (c) Copyright 15Jun2001 Georg Kresse                                
   COPYR  = This file is part of the software VASP. Any use, copying, and all ot
   COPYR  = If you do not have a valid VASP license, you may not use, copy or di
   VRHFIN =H: ultrasoft test                                                    
   LEXCH  = PE                                                                  
   EATOM  =    12.4884 eV,    0.9179 Ry                                         
                                                                                
   TITEL  = PAW_PBE H 15Jun2001                                                 
   LULTRA =        F    use ultrasoft PP ?                                      
   IUNSCR =        0    unscreen: 0-lin 1-nonlin 2-no                           
   RPACOR =    0.000    partial core radius                                     
   POMASS =    1.000; ZVAL   =    1.000    mass and valenz                      
   RCORE  =    1.100    outmost cutoff radius                                   
   RWIGS  =    0.700; RWIGS  =    0.370    wigner-seitz radius (au A)           
   ENMAX  =  250.000; ENMIN  =  200.000 eV                                      
   RCLOC  =    0.701    cutoff for local pot                                    
   LCOR   =        T    correct aug charges                                     
   LPAW   =        T    paw PP                                                  
   EAUG   =  400.000                                                            
   RMAX   =    1.123    core radius for proj-oper                               
   RAUG   =    1.200    factor for augmentation sphere                          
   RDEP   =    1.112    radius for radial grids                                 
   RDEPT  =    0.926    core radius for aug-charge                              
                                                                                
   Atomic configuration                                                         
    2 entries                                                                   
     n  l   j            E        occ.                                          
     1  0  0.50        -6.4927   1.0000                                         
     2  1  0.50        -3.4015   0.0000                                         
   Description                                                                  
     l       E           TYP  RCUT    TYP  RCUT                                 
     0     -6.4927494     23  1.100                                             
     0      6.8029130     23  1.100                                             
     1     -4.0817478     23  1.100                                             
  local pseudopotential read in
  atomic valenz-charges read in
  non local Contribution for L=           0  read in
    real space projection operators read in
  non local Contribution for L=           0  read in
    real space projection operators read in
  non local Contribution for L=           1  read in
    real space projection operators read in
    PAW grid and wavefunctions read in

   number of l-projection  operators is LMAX  =           3
   number of lm-projection operators is LMMAX =           5

 POTCAR:    PAW_PBE Li 17Jan2003                  
   SHA256 =  3d9d9bfd1dd25b20a3b919cb3191e6ef627605783dc2e149b9290ff31c32aa6e Li
   COPYR  = (c) Copyright 17Jan2003 Georg Kresse                                
   COPYR  = This file is part of the software VASP. Any use, copying, and all ot
   COPYR  = If you do not have a valid VASP license, you may not use, copy or di
   VRHFIN =Li: s1p0                                                             
   LEXCH  = PE                                                                  
   EATOM  =     5.3001 eV,    0.3895 Ry                                         
                                                                                
   TITEL  = PAW_PBE Li 17Jan2003                                                
   LULTRA =        F    use ultrasoft PP ?                                      
   IUNSCR =        1    unscreen: 0-lin 1-nonlin 2-no                           
   RPACOR =    1.500    partial core radius                                     
   POMASS =    7.010; ZVAL   =    1.000    mass and valenz                      
   RCORE  =    2.050    outmost cutoff radius                                   
   RWIGS  =    2.600; RWIGS  =    1.376    wigner-seitz radius (au A)           
   ENMAX  =  140.000; ENMIN  =  100.000 eV                                      
   ICORE  =        2    local potential                                         
   LCOR   =        T    correct aug charges                                     
   LPAW   =        T    paw PP                                                  
   EAUG   =  331.638                                                            
   DEXC   =    0.000                                                            
   RMAX   =    2.098    core radius for proj-oper                               
   RAUG   =    1.300    factor for augmentation sphere                          
   RDEP   =    2.094    radius for radial grids                                 
   RDEPT  =    1.810    core radius for aug-charge                              
                                                                                
   Atomic configuration                                                         
    4 entries                                                                   
     n  l   j            E        occ.                                          
     1  0  0.50       -51.8549   2.0000                                         
     2  0  0.50        -2.8742   1.0000                                         
     2  1  0.50        -1.3606   0.0000                                         
     3  2  1.50        -1.3606   0.0000                                         
   Description                                                                  
     l       E           TYP  RCUT    TYP  RCUT                                 
     0     -2.8742052     23  2.050                                             
     0     27.2116520     23  2.050                                             
     1     -1.3605826     23  2.050                                             
     2     -1.3605826     23  2.050                                             
  local pseudopotential read in
  partial core-charges read in
  partial kinetic energy density read in
  atomic valenz-charges read in
  non local Contribution for L=           0  read in
    real space projection operators read in
  non local Contribution for L=           0  read in
    real space projection operators read in
  non local Contribution for L=           1  read in
    real space projection operators read in
    PAW grid and wavefunctions read in

   number of l-projection  operators is LMAX  =           3
   number of lm-projection operators is LMMAX =           5

 Optimization of the real space projectors (new method)

 maximal supplied QI-value         = 25.13
 optimisation between [QCUT,QGAM] = [ 10.05, 20.36] = [ 28.30,116.06] Ry 
 Optimized for a Real-space Cutoff    1.30 Angstroem

   l    n(q)    QCUT    max X(q) W(low)/X(q) W(high)/X(q)  e(spline) 
   0      8    10.053   115.676    0.49E-03    0.72E-03    0.18E-06
   0      8    10.053    87.132    0.49E-03    0.71E-03    0.18E-06
   1      7    10.053     4.429    0.32E-03    0.31E-03    0.18E-06
   1      7    10.053     2.733    0.23E-03    0.19E-03    0.20E-06
 Optimization of the real space projectors (new method)

 maximal supplied QI-value         = 34.20
 optimisation between [QCUT,QGAM] = [  9.92, 20.18] = [ 27.55,114.04] Ry 
 Optimized for a Real-space Cutoff    1.26 Angstroem

   l    n(q)    QCUT    max X(q) W(low)/X(q) W(high)/X(q)  e(spline) 
   0      8     9.919    19.460    0.50E-03    0.23E-03    0.29E-06
   0      8     9.919    12.209    0.48E-03    0.23E-03    0.28E-06
   1      7     9.919     4.655    0.17E-03    0.75E-03    0.30E-06
 Optimization of the real space projectors (new method)

 maximal supplied QI-value         = 18.33
 optimisation between [QCUT,QGAM] = [ 10.08, 20.35] = [ 28.46,115.93] Ry 
 Optimized for a Real-space Cutoff    1.16 Angstroem

   l    n(q)    QCUT    max X(q) W(low)/X(q) W(high)/X(q)  e(spline) 
   0      7    10.082    33.825    0.44E-03    0.14E-03    0.78E-07
   0      7    10.082     8.944    0.33E-03    0.12E-03    0.56E-07
   1      6    10.082     4.214    0.33E-03    0.37E-03    0.39E-07
  PAW_PBE C 08Apr2002                   :
 energy of atom  1       EATOM= -147.1560
 kinetic energy error for atom=    0.0288 (will be added to EATOM!!)
  PAW_PBE H 15Jun2001                   :
 energy of atom  2       EATOM=  -12.4884
 kinetic energy error for atom=    0.0098 (will be added to EATOM!!)
  PAW_PBE Li 17Jan2003                  :
 energy of atom  3       EATOM=   -5.3001
 kinetic energy error for atom=    0.0000 (will be added to EATOM!!)


 POSCAR: C4                                      
  positions in direct lattice
  velocities in cartesian coordinates
 exchange correlation table for  LEXCH =        8
   RHO(1)=    0.500       N(1)  =     2000
   RHO(2)=  100.500       N(2)  =     4000

 VTST: version 3.2, (02/03/18)

 CHAIN: initializing optimizer
 
 OPT: Using VASP Conjugate-Gradient optimizer
 CHAIN: Read ICHAIN            0

 POSCAR: C4                                      
  positions in direct lattice
  velocities in cartesian coordinates



--------------------------------------------------------------------------------------------------------


 ion  position               nearest neighbor table
   1  0.467  0.003  0.436-  28 1.42  25 1.43  93 1.43
   2  0.467  0.503  0.436-  27 1.42  26 1.43  94 1.43
   3  0.434  0.253  0.436-  25 1.42  33 1.42  27 1.43
   4  0.434  0.753  0.436-  26 1.42  34 1.42  28 1.43
   5  0.334  0.003  0.436-  32 1.41  36 1.42  29 1.43
   6  0.334  0.503  0.436-  31 1.41  35 1.42  30 1.43
   7  0.302  0.257  0.436- 115 1.09  31 1.37  29 1.41
   8  0.302  0.756  0.436- 116 1.09  32 1.37  30 1.41
   9  0.401  0.003  0.436-  33 1.42  28 1.42  36 1.43
  10  0.401  0.503  0.436-  34 1.42  27 1.43  35 1.43
  11  0.367  0.253  0.436-  29 1.42  35 1.43  33 1.43
  12  0.367  0.753  0.436-  30 1.42  36 1.43  34 1.43
  13  0.467  0.997  0.564-  45 1.42  40 1.43  86 1.43
  14  0.467  0.497  0.564-  46 1.42  39 1.43  85 1.43
  15  0.434  0.247  0.564-  39 1.42  47 1.42  45 1.43
  16  0.434  0.747  0.564-  40 1.42  48 1.42  46 1.43
  17  0.334  0.997  0.564-  37 1.41  41 1.42  44 1.43
  18  0.334  0.497  0.564-  38 1.41  42 1.42  43 1.43
  19  0.302  0.243  0.564- 117 1.09  37 1.37  43 1.41
  20  0.302  0.744  0.564- 118 1.09  38 1.37  44 1.41
  21  0.401  0.997  0.564-  48 1.42  45 1.43  41 1.43
  22  0.401  0.497  0.564-  47 1.42  46 1.43  42 1.43
  23  0.367  0.247  0.564-  43 1.42  41 1.43  47 1.43
  24  0.367  0.747  0.564-  44 1.42  42 1.43  48 1.43
  25  0.467  0.170  0.436-   3 1.42   1 1.43  72 1.43
  26  0.467  0.670  0.436-   4 1.42   2 1.43  71 1.43
  27  0.434  0.420  0.436-   2 1.42  10 1.43   3 1.43
  28  0.434  0.920  0.436-   1 1.42   9 1.42   4 1.43
  29  0.334  0.170  0.436-   7 1.41  11 1.42   5 1.43
  30  0.334  0.670  0.436-   8 1.41  12 1.42   6 1.43
  31  0.302  0.417  0.436- 120 1.09   7 1.37   6 1.41
  32  0.302  0.917  0.436- 119 1.09   8 1.37   5 1.41
  33  0.401  0.170  0.436-   9 1.42   3 1.42  11 1.43
  34  0.401  0.670  0.436-  10 1.42   4 1.42  12 1.43
  35  0.367  0.420  0.436-   6 1.42  11 1.43  10 1.43
  36  0.367  0.920  0.436-   5 1.42  12 1.43   9 1.43
  37  0.302  0.083  0.564- 113 1.09  19 1.37  17 1.41
  38  0.302  0.583  0.564- 114 1.09  20 1.37  18 1.41
  39  0.467  0.330  0.564-  15 1.42  14 1.43  58 1.43
  40  0.467  0.830  0.564-  16 1.42  13 1.43  57 1.43
  41  0.367  0.080  0.564-  17 1.42  23 1.43  21 1.43
  42  0.367  0.580  0.564-  18 1.42  24 1.43  22 1.43
  43  0.334  0.330  0.564-  19 1.41  23 1.42  18 1.43
  44  0.334  0.830  0.564-  20 1.41  24 1.42  17 1.43
  45  0.434  0.080  0.564-  13 1.42  21 1.43  15 1.43
  46  0.434  0.580  0.564-  14 1.42  22 1.43  16 1.43
  47  0.401  0.330  0.564-  22 1.42  15 1.42  23 1.43
  48  0.401  0.830  0.564-  21 1.42  16 1.42  24 1.43
  49  0.533  0.997  0.564-  80 1.42  77 1.43  86 1.43
  50  0.533  0.497  0.564-  79 1.42  78 1.43  85 1.43
  51  0.566  0.747  0.564-  77 1.42  87 1.42  79 1.43
  52  0.566  0.247  0.564-  78 1.42  88 1.42  80 1.43
  53  0.666  0.997  0.564-  84 1.41  90 1.42  81 1.43
  54  0.666  0.497  0.564-  83 1.41  89 1.42  82 1.43
  55  0.698  0.743  0.564- 107 1.09  83 1.37  81 1.41
  56  0.698  0.243  0.564- 108 1.09  84 1.37  82 1.41
  57  0.500  0.747  0.564-  85 1.42  77 1.43  40 1.43
  58  0.500  0.247  0.564-  86 1.42  78 1.43  39 1.43
  59  0.599  0.997  0.564-  87 1.42  80 1.42  90 1.43
  60  0.599  0.497  0.564-  88 1.42  79 1.43  89 1.43
  61  0.633  0.747  0.564-  81 1.42  89 1.43  87 1.43
  62  0.633  0.247  0.564-  82 1.42  90 1.43  88 1.43
  63  0.533  0.003  0.436- 101 1.42  96 1.43  93 1.43
  64  0.533  0.503  0.436- 102 1.42  95 1.43  94 1.43
  65  0.566  0.753  0.436-  95 1.42 103 1.42 101 1.43
  66  0.566  0.253  0.436-  96 1.42 104 1.42 102 1.43
  67  0.666  0.003  0.436-  91 1.41  97 1.42 100 1.43
  68  0.666  0.503  0.436-  92 1.41  98 1.42  99 1.43
  69  0.698  0.757  0.436- 109 1.09  91 1.37  99 1.41
  70  0.698  0.256  0.436- 110 1.09  92 1.37 100 1.41
  71  0.500  0.753  0.436-  93 1.42  95 1.43  26 1.43
  72  0.500  0.253  0.436-  94 1.42  25 1.43  96 1.43
  73  0.599  0.003  0.436- 104 1.42 101 1.43  97 1.43
  74  0.599  0.503  0.436- 103 1.42 102 1.43  98 1.43
  75  0.633  0.753  0.436-  99 1.42  97 1.43 103 1.43
  76  0.633  0.253  0.436- 100 1.42  98 1.43 104 1.43
  77  0.533  0.830  0.564-  51 1.42  49 1.43  57 1.43
  78  0.533  0.330  0.564-  52 1.42  50 1.43  58 1.43
  79  0.566  0.580  0.564-  50 1.42  60 1.43  51 1.43
  80  0.566  0.080  0.564-  49 1.42  59 1.42  52 1.43
  81  0.666  0.830  0.564-  55 1.41  61 1.42  53 1.43
  82  0.666  0.330  0.564-  56 1.41  62 1.42  54 1.43
  83  0.698  0.583  0.564- 112 1.09  55 1.37  54 1.41
  84  0.698  0.083  0.564- 111 1.09  56 1.37  53 1.41
  85  0.500  0.580  0.564-  57 1.42  14 1.43  50 1.43
  86  0.500  0.080  0.564-  58 1.42  13 1.43  49 1.43
  87  0.599  0.830  0.564-  59 1.42  51 1.42  61 1.43
  88  0.599  0.330  0.564-  60 1.42  52 1.42  62 1.43
  89  0.633  0.580  0.564-  54 1.42  61 1.43  60 1.43
  90  0.633  0.080  0.564-  53 1.42  62 1.43  59 1.43
  91  0.698  0.917  0.436- 105 1.09  69 1.37  67 1.41
  92  0.698  0.417  0.436- 106 1.09  70 1.37  68 1.41
  93  0.500  0.919  0.436-  71 1.42   1 1.43  63 1.43
  94  0.500  0.420  0.436-  72 1.42  64 1.43   2 1.43
  95  0.533  0.670  0.436-  65 1.42  64 1.43  71 1.43
  96  0.533  0.170  0.436-  66 1.42  63 1.43  72 1.43
  97  0.633  0.920  0.436-  67 1.42  75 1.43  73 1.43
  98  0.633  0.420  0.436-  68 1.42  76 1.43  74 1.43
  99  0.666  0.670  0.436-  69 1.41  75 1.42  68 1.43
 100  0.666  0.170  0.436-  70 1.41  76 1.42  67 1.43
 101  0.566  0.920  0.436-  63 1.42  73 1.43  65 1.43
 102  0.566  0.420  0.436-  64 1.42  74 1.43  66 1.43
 103  0.599  0.670  0.436-  74 1.42  65 1.42  75 1.43
 104  0.599  0.170  0.436-  73 1.42  66 1.42  76 1.43
 105  0.724  0.977  0.437-  91 1.09
 106  0.724  0.477  0.437-  92 1.09
 107  0.724  0.804  0.563-  55 1.09
 108  0.724  0.304  0.563-  56 1.09
 109  0.724  0.696  0.437-  69 1.09
 110  0.724  0.196  0.437-  70 1.09
 111  0.724  0.023  0.563-  84 1.09
 112  0.724  0.523  0.563-  83 1.09
 113  0.276  0.023  0.563-  37 1.09
 114  0.276  0.523  0.563-  38 1.09
 115  0.276  0.196  0.437-   7 1.09
 116  0.276  0.696  0.437-   8 1.09
 117  0.276  0.304  0.563-  19 1.09 121 2.04
 118  0.276  0.804  0.563-  20 1.09
 119  0.276  0.977  0.437-  32 1.09
 120  0.276  0.477  0.437-  31 1.09
 121  0.249  0.331  0.500- 117 2.04

  LATTYP: Found a simple orthorhombic cell.
 ALAT       =     8.5469398499
 B/A-ratio  =     3.2529857904
 C/A-ratio  =     4.3551772818
  
  Lattice vectors:
  
 A1 = (   0.0000000000,   8.5469398499,   0.0000000000)
 A2 = (   0.0000000000,   0.0000000000, -27.8030738831)
 A3 = ( -37.2234382629,   0.0000000000,   0.0000000000)


Analysis of symmetry for initial positions (statically):
=====================================================================
 Subroutine PRICEL returns:
 Original cell was already a primitive cell.
 

 Routine SETGRP: Setting up the symmetry group for a 
 simple orthorhombic supercell.


 Subroutine GETGRP returns: Found  1 space group operations
 (whereof  1 operations were pure point group operations)
 out of a pool of  8 trial point group operations.


The static configuration has the point symmetry C_1 .


Analysis of symmetry for dynamics (positions and initial velocities):
=====================================================================
 Subroutine PRICEL returns:
 Original cell was already a primitive cell.
 

 Routine SETGRP: Setting up the symmetry group for a 
 simple orthorhombic supercell.


 Subroutine GETGRP returns: Found  1 space group operations
 (whereof  1 operations were pure point group operations)
 out of a pool of  8 trial point group operations.


The dynamic configuration has the point symmetry C_1 .


Analysis of structural, dynamic, and magnetic symmetry:
=====================================================================
 Subroutine PRICEL returns:
 Original cell was already a primitive cell.
 

 Routine SETGRP: Setting up the symmetry group for a 
 simple orthorhombic supercell.


 Subroutine GETGRP returns: Found  1 space group operations
 (whereof  1 operations were pure point group operations)
 out of a pool of  8 trial point group operations.


The magnetic configuration has the point symmetry C_1 .


 Subroutine INISYM returns: Found  1 space group operations
 (whereof  1 operations are pure point group operations),
 and found     1 'primitive' translations



 KPOINTS: Regular k-point mesh                    

Automatic generation of k-mesh.
Space group operators:
 irot       det(A)        alpha          n_x          n_y          n_z        tau_x        tau_y        tau_z
    1     1.000000     0.000000     1.000000     0.000000     0.000000     0.000000     0.000000     0.000000
 
 Subroutine IBZKPT returns following result:
 ===========================================
 
 Found      5 irreducible k-points:
 
 Following reciprocal coordinates:
            Coordinates               Weight
  0.000000  0.000000  0.000000      1.000000
  0.000000  0.125000  0.000000      2.000000
  0.000000  0.250000  0.000000      2.000000
  0.000000  0.375000  0.000000      2.000000
  0.000000  0.500000  0.000000      1.000000
 
 Following cartesian coordinates:
            Coordinates               Weight
  0.000000  0.000000  0.000000      1.000000
  0.000000  0.014625  0.000000      2.000000
  0.000000  0.029250  0.000000      2.000000
  0.000000  0.043875  0.000000      2.000000
  0.000000  0.058500  0.000000      1.000000
 


--------------------------------------------------------------------------------------------------------




 Dimension of arrays:
   k-points           NKPTS =      5   k-points in BZ     NKDIM =      5   number of bands    NBANDS=    340
   number of dos      NEDOS =    301   number of ions     NIONS =    121
   non local maximal  LDIM  =      4   non local SUM 2l+1 LMDIM =      8
   total plane-waves  NPLWV = ******
   max r-space proj   IRMAX =   1228   max aug-charges    IRDMAX=   4283
   dimension x,y,z NGX =   192 NGY =   42 NGZ =  140
   dimension x,y,z NGXF=   384 NGYF=   84 NGZF=  280
   support grid    NGXF=   384 NGYF=   84 NGZF=  280
   ions per type =             104  16   1
   NGX,Y,Z   is equivalent  to a cutoff of   8.58,  8.17,  8.37 a.u.
   NGXF,Y,Z  is equivalent  to a cutoff of  17.15, 16.34, 16.74 a.u.

 SYSTEM =  unknown system                          
 POSCAR =  C4                                      

 Startparameter for this run:
   NWRITE =      2    write-flag & timer
   PREC   = normal    normal or accurate (medium, high low for compatibility)
   ISTART =      0    job   : 0-new  1-cont  2-samecut
   ICHARG =      2    charge: 1-file 2-atom 10-const
   ISPIN  =      2    spin polarized calculation?
   LNONCOLLINEAR =      F non collinear calculations
   LSORBIT =      F    spin-orbit coupling
   INIWAV =      1    electr: 0-lowe 1-rand  2-diag
   LASPH  =      F    aspherical Exc in radial PAW
   METAGGA=      F    non-selfconsistent MetaGGA calc.

 Electronic Relaxation 1
   ENCUT  =  400.0 eV  29.40 Ry    5.42 a.u.  60.70 13.94 45.34*2*pi/ulx,y,z
   ENINI  =  400.0     initial cutoff
   ENAUG  =  644.9 eV  augmentation charge cutoff
   NELM   =    100;   NELMIN=  2; NELMDL= -5     # of ELM steps 
   EDIFF  = 0.1E-03   stopping-criterion for ELM
   LREAL  =      T    real-space projection
   NLSPLINE    = F    spline interpolate recip. space projectors
   LCOMPAT=      F    compatible to vasp.4.4
   GGA_COMPAT  = T    GGA compatible to vasp.4.4-vasp.4.6
   LMAXPAW     = -100 max onsite density
   LMAXMIX     =    2 max onsite mixed and CHGCAR
   VOSKOWN=      0    Vosko Wilk Nusair interpolation
   ROPT   =   -0.00050  -0.00050  -0.00050
 Ionic relaxation
   EDIFFG = -.1E-01   stopping-criterion for IOM
   NSW    =      0    number of steps for IOM
   NBLOCK =      1;   KBLOCK =      1    inner block; outer block 
   IBRION =     -1    ionic relax: 0-MD 1-quasi-New 2-CG
   NFREE  =      1    steps in history (QN), initial steepest desc. (CG)
   ISIF   =      2    stress and relaxation
   IWAVPR =     10    prediction:  0-non 1-charg 2-wave 3-comb
   ISYM   =      2    0-nonsym 1-usesym 2-fastsym
   LCORR  =      T    Harris-Foulkes like correction to forces

   POTIM  = 0.5000    time-step for ionic-motion
   TEIN   =    0.0    initial temperature
   TEBEG  =    0.0;   TEEND  =   0.0 temperature during run
   SMASS  =  -3.00    Nose mass-parameter (am)
   estimated Nose-frequenzy (Omega)   =  0.10E-29 period in steps =****** mass=  -0.317E-25a.u.
   SCALEE = 1.0000    scale energy and forces
   NPACO  =    256;   APACO  = 16.0  distance and # of slots for P.C.
   PSTRESS=    0.0 pullay stress

  Mass of Ions in am
   POMASS =  12.01  1.00  7.01
  Ionic Valenz
   ZVAL   =   4.00  1.00  1.00
  Atomic Wigner-Seitz radii
   RWIGS  =  -1.00 -1.00 -1.00
  virtual crystal weights 
   VCA    =   1.00  1.00  1.00
   NELECT =     433.0000    total number of electrons
   NUPDOWN=      -1.0000    fix difference up-down

 DOS related values:
   EMIN   =  10.00;   EMAX   =-10.00  energy-range for DOS
   EFERMI =   0.00
   ISMEAR =     0;   SIGMA  =   0.10  broadening in eV -4-tet -1-fermi 0-gaus

 Electronic relaxation 2 (details)
   IALGO  =     38    algorithm
   LDIAG  =      T    sub-space diagonalisation (order eigenvalues)
   LSUBROT=      F    optimize rotation matrix (better conditioning)
   TURBO    =      0    0=normal 1=particle mesh
   IRESTART =      0    0=no restart 2=restart with 2 vectors
   NREBOOT  =      0    no. of reboots
   NMIN     =      0    reboot dimension
   EREF     =   0.00    reference energy to select bands
   IMIX   =      4    mixing-type and parameters
     AMIX     =   0.40;   BMIX     =  1.00
     AMIX_MAG =   1.60;   BMIX_MAG =  1.00
     AMIN     =   0.10
     WC   =   100.;   INIMIX=   1;  MIXPRE=   1;  MAXMIX= -45

 Intra band minimization:
   WEIMIN = 0.0000     energy-eigenvalue tresh-hold
   EBREAK =  0.74E-07  absolut break condition
   DEPER  =   0.30     relativ break condition  

   TIME   =   0.40     timestep for ELM

  volume/ion in A,a.u.               =      73.10       493.32
  Fermi-wavevector in a.u.,A,eV,Ry     =   0.598868  1.131696  4.879626  0.358642
  Thomas-Fermi vector in A             =   1.650134

 Write flags
   LWAVE        =      T    write WAVECAR
   LDOWNSAMPLE  =      F    k-point downsampling of WAVECAR
   LCHARG       =      T    write CHGCAR
   LVTOT        =      F    write LOCPOT, total local potential
   LVHAR        =      F    write LOCPOT, Hartree potential only
   LELF         =      F    write electronic localiz. function (ELF)
   LORBIT       =      0    0 simple, 1 ext, 2 COOP (PROOUT), +10 PAW based schemes


 Dipole corrections
   LMONO  =      F    monopole corrections only (constant potential shift)
   LDIPOL =      F    correct potential (dipole corrections)
   IDIPOL =      0    1-x, 2-y, 3-z, 4-all directions 
   EPSILON=  1.0000000 bulk dielectric constant

 Exchange correlation treatment:
   GGA     =    --    GGA type
   LEXCH   =     8    internal setting for exchange type
   VOSKOWN=      0    Vosko Wilk Nusair interpolation
   LHFCALC =     F    Hartree Fock is set to
   LHFONE  =     F    Hartree Fock one center treatment
   AEXX    =    0.0000 exact exchange contribution

 Linear response parameters
   LEPSILON=     F    determine dielectric tensor
   LRPA    =     F    only Hartree local field effects (RPA)
   LNABLA  =     F    use nabla operator in PAW spheres
   LVEL    =     F    velocity operator in full k-point grid
   LINTERFAST=   F  fast interpolation
   KINTER  =     0    interpolate to denser k-point grid
   CSHIFT  =0.1000    complex shift for real part using Kramers Kronig
   OMEGAMAX=  -1.0    maximum frequency
   DEG_THRESHOLD= 0.2000000E-02 threshold for treating states as degnerate
   RTIME   =   -0.100 relaxation time in fs
  (WPLASMAI=    0.000 imaginary part of plasma frequency in eV, 0.658/RTIME)
   DFIELD  = 0.0000000 0.0000000 0.0000000 field for delta impulse in time

 Orbital magnetization related:
   ORBITALMAG=     F  switch on orbital magnetization
   LCHIMAG   =     F  perturbation theory with respect to B field
   DQ        =  0.001000  dq finite difference perturbation B field
   LLRAUG    =     F  two centre corrections for induced B field



--------------------------------------------------------------------------------------------------------


 Static calculation
 charge density and potential will be updated during run
 spin polarized calculation
 Variant of blocked Davidson
 Davidson routine will perform the subspace rotation
 perform sub-space diagonalisation
    after iterative eigenvector-optimisation
 modified Broyden-mixing scheme, WC =      100.0
 initial mixing is a Kerker type mixing with AMIX =  0.4000 and BMIX =      1.0000
 Hartree-type preconditioning will be used
 using additional bands          123
 real space projection scheme for non local part
 use partial core corrections
 calculate Harris-corrections to forces   (improved forces if not selfconsistent)
 use gradient corrections 
 use of overlap-Matrix (Vanderbilt PP)
 Gauss-broadening in eV      SIGMA  =   0.10


--------------------------------------------------------------------------------------------------------


  energy-cutoff  :      400.00
  volume of cell :     8845.45
      direct lattice vectors                 reciprocal lattice vectors
    37.223438263  0.000000000  0.000000000     0.026864794  0.000000000  0.000000000
     0.000000000  8.546939850  0.000000000     0.000000000  0.117000940  0.000000000
     0.000000000  0.000000000 27.803073883     0.000000000  0.000000000  0.035967246

  length of vectors
    37.223438263  8.546939850 27.803073883     0.026864794  0.117000940  0.035967246



 k-points in units of 2pi/SCALE and weight: Regular k-point mesh                    
   0.00000000  0.00000000  0.00000000       0.125
   0.00000000  0.01462512  0.00000000       0.250
   0.00000000  0.02925024  0.00000000       0.250
   0.00000000  0.04387535  0.00000000       0.250
   0.00000000  0.05850047  0.00000000       0.125

 k-points in reciprocal lattice and weights: Regular k-point mesh                    
   0.00000000  0.00000000  0.00000000       0.125
   0.00000000  0.12500000  0.00000000       0.250
   0.00000000  0.25000000  0.00000000       0.250
   0.00000000  0.37500000  0.00000000       0.250
   0.00000000  0.50000000  0.00000000       0.125

 position of ions in fractional coordinates (direct lattice) 
   0.46682320  0.00297472  0.43597486
   0.46682441  0.50298092  0.43597786
   0.43374231  0.25293625  0.43601871
   0.43374236  0.75294306  0.43601933
   0.33424870  0.00267975  0.43606025
   0.33424624  0.50268228  0.43606661
   0.30182639  0.25650378  0.43628402
   0.30182822  0.75649895  0.43627065
   0.40061359  0.00348454  0.43603631
   0.40061176  0.50348331  0.43603334
   0.36732951  0.25306654  0.43601746
   0.36733302  0.75306775  0.43601521
   0.46682363  0.99701683  0.56402359
   0.46682203  0.49701967  0.56402416
   0.43374127  0.24705801  0.56397954
   0.43374031  0.74705541  0.56398037
   0.33424568  0.99731810  0.56393693
   0.33424612  0.49732097  0.56393602
   0.30182465  0.24349141  0.56372653
   0.30182766  0.74350450  0.56372144
   0.40061076  0.99651122  0.56396301
   0.40061119  0.49651340  0.56396353
   0.36732771  0.24693063  0.56398229
   0.36733083  0.74693300  0.56398208
   0.46682225  0.16977091  0.43597063
   0.46681997  0.66977412  0.43597017
   0.43373852  0.41990595  0.43601288
   0.43373848  0.91990707  0.43601081
   0.33425551  0.17046088  0.43606263
   0.33425768  0.67046343  0.43605640
   0.30181258  0.41663673  0.43624482
   0.30181419  0.91663631  0.43623134
   0.40061075  0.16951033  0.43601396
   0.40061122  0.66951493  0.43601633
   0.36732467  0.42001774  0.43601775
   0.36732767  0.92002170  0.43601519
   0.30181211  0.08336155  0.56376283
   0.30181133  0.58336391  0.56376337
   0.46682035  0.33023146  0.56402865
   0.46681903  0.83022401  0.56403054
   0.36732454  0.07998191  0.56398202
   0.36732481  0.57997832  0.56398151
   0.33425314  0.32953667  0.56394047
   0.33425587  0.82953979  0.56394180
   0.43373711  0.08009345  0.56398853
   0.43373717  0.58009143  0.56398611
   0.40060784  0.33048527  0.56398450
   0.40060986  0.83048174  0.56398102
   0.53317795  0.99701603  0.56402498
   0.53317690  0.49701174  0.56402274
   0.56625919  0.74705831  0.56398086
   0.56625872  0.24705622  0.56398029
   0.66575026  0.99731404  0.56394117
   0.66575242  0.49731675  0.56393527
   0.69817296  0.74349315  0.56372289
   0.69817321  0.24349699  0.56372869
   0.49999965  0.74677709  0.56402245
   0.49999949  0.24677751  0.56402330
   0.59938624  0.99651379  0.56396350
   0.59938725  0.49650797  0.56396547
   0.63266775  0.74692412  0.56398421
   0.63266912  0.24692576  0.56398513
   0.53317790  0.00297945  0.43597581
   0.53317909  0.50297795  0.43597626
   0.56626123  0.75293811  0.43601965
   0.56626047  0.25293895  0.43601859
   0.66575405  0.00267645  0.43606188
   0.66575337  0.50267503  0.43606207
   0.69817497  0.75650075  0.43627080
   0.69817449  0.25649467  0.43627908
   0.50000161  0.75321477  0.43597635
   0.50000167  0.25321844  0.43597894
   0.59938871  0.00349017  0.43603545
   0.59938842  0.50347931  0.43603427
   0.63267037  0.75307068  0.43601577
   0.63267081  0.25306564  0.43601633
   0.53318013  0.83022398  0.56403038
   0.53317970  0.33021966  0.56402944
   0.56626251  0.58008980  0.56398667
   0.56626224  0.08009120  0.56398899
   0.66574234  0.82953065  0.56394091
   0.66574338  0.32953305  0.56394391
   0.69818794  0.58335844  0.56376241
   0.69818741  0.08335547  0.56376873
   0.49999962  0.58049751  0.56403470
   0.50000058  0.08049929  0.56403168
   0.59938982  0.83048673  0.56398507
   0.59939116  0.33047726  0.56398436
   0.63267239  0.57997475  0.56398251
   0.63267162  0.07997338  0.56398488
   0.69818978  0.91663407  0.43623477
   0.69818966  0.41663613  0.43623499
   0.50000066  0.91949494  0.43596828
   0.50000171  0.41950192  0.43596587
   0.53318212  0.66976921  0.43597049
   0.53318159  0.16977294  0.43596998
   0.63267412  0.92001858  0.43601570
   0.63267452  0.42001681  0.43601621
   0.66574452  0.67046299  0.43605801
   0.66574550  0.17045489  0.43605721
   0.56626332  0.91990560  0.43601079
   0.56626323  0.41990072  0.43601315
   0.59939277  0.66950773  0.43601447
   0.59939292  0.16951360  0.43601621
   0.72391709  0.97712321  0.43652626
   0.72391911  0.47711640  0.43653205
   0.72388049  0.80413917  0.56335372
   0.72388138  0.30413326  0.56336551
   0.72388193  0.69586247  0.43663607
   0.72388210  0.19585054  0.43664539
   0.72391548  0.02286590  0.56348009
   0.72391667  0.52287850  0.56346400
   0.27608647  0.02286855  0.56346991
   0.27608403  0.52287789  0.56346642
   0.27612003  0.19585474  0.43666046
   0.27612223  0.69584810  0.43663206
   0.27611835  0.30413505  0.56335819
   0.27612086  0.80415571  0.56335478
   0.27608764  0.97713132  0.43651935
   0.27608501  0.47711488  0.43654883
   0.24925521  0.33127296  0.49998886

 position of ions in cartesian coordinates  (Angst):
  17.37676465  0.02542474 12.12144112
  17.37680957  4.29894765 12.12152458
  16.14538011  2.16183094 12.12266042
  16.14538208  6.43535903 12.12267768
  12.44188586  0.02290363 12.12381539
  12.44179424  4.29639520 12.12399211
  11.23501614  2.19232240 12.13003675
  11.23508417  6.46575100 12.12966522
  14.91221510  0.02978217 12.12314978
  14.91214714  4.30324155 12.12306713
  13.67326724  2.16294446 12.12262578
  13.67339814  6.43642474 12.12256303
  17.37678071  8.52144284 15.68158953
  17.37672100  4.24799726 15.68160544
  16.14534142  2.11158998 15.68036474
  16.14530554  6.38503762 15.68038799
  12.44177352  8.52401778 15.67918026
  12.44178986  4.25057238 15.67915473
  11.23495119  2.08110639 15.67333041
  11.23506340  6.35468822 15.67318893
  14.91210973  8.51712147 15.67990527
  14.91212607  4.24367015 15.67991971
  13.67320047  2.11050126 15.68044121
  13.67331651  6.38399144 15.68043537
  17.37672924  1.45102177 12.12132361
  17.37664427  5.72451914 12.12131088
  16.14523917  3.58891088 12.12249826
  16.14523761  7.86239043 12.12244078
  12.44213926  1.45691893 12.12388153
  12.44222015  5.73041063 12.12370825
  11.23450196  3.56096910 12.12894710
  11.23456184  7.83443544 12.12857209
  14.91210954  1.44879462 12.12252829
  14.91212690  5.72230380 12.12259410
  13.67308706  3.58986635 12.12263379
  13.67319896  7.86337010 12.12256263
  11.23448438  0.71248620 15.67433948
  11.23445523  4.98597624 15.67435463
  17.37665856  2.82246838 15.68173030
  17.37660940  7.09587471 15.68178269
  13.67308221  0.68360055 15.68043368
  13.67309223  4.95703983 15.68041965
  12.44205108  2.81653011 15.67927859
  12.44215256  7.09002666 15.67931540
  16.14518643  0.68455393 15.68061479
  16.14518862  4.95800655 15.68054760
  14.91200127  2.82463768 15.68050262
  14.91207657  7.09807750 15.68040604
  19.84671642  8.52143600 15.68162824
  19.84667728  4.24792943 15.68156587
  21.07811412  6.38506241 15.68040166
  21.07809637  2.11157465 15.68038567
  24.78151377  8.52398309 15.67929810
  24.78159413  4.25053636 15.67913389
  25.98839825  6.35459127 15.67322906
  25.98840754  2.08115411 15.67339029
  18.61170613  6.38265886 15.68155796
  18.61170019  2.10919252 15.68158137
  22.31121683  8.51714344 15.67991884
  22.31125415  4.24362379 15.67997372
  23.55006879  6.38391557 15.68049452
  23.55011997  2.11045963 15.68052031
  19.84671483  0.02546522 12.12146779
  19.84675878  4.29892225 12.12148016
  21.07818987  6.43531675 12.12268662
  21.07816152  2.16185401 12.12265717
  24.78165472  0.02287546 12.12386069
  24.78162952  4.29633324 12.12386594
  25.98847296  6.46576643 12.12966937
  25.98845487  2.19224449 12.12989942
  18.61177894  6.43768132 12.12148256
  18.61178132  2.16424279 12.12155479
  22.31130862  0.02983030 12.12312584
  22.31129793  4.30320738 12.12309309
  23.55016630  6.43644982 12.12257860
  23.55018281  2.16293681 12.12259436
  19.84679780  7.09587440 15.68177827
  19.84678182  2.82236761 15.68175221
  21.07823772  4.95799259 15.68056306
  21.07822760  0.68453469 15.68062750
  24.78121884  7.08994860 15.67929076
  24.78125753  2.81649914 15.67937427
  25.98895566  4.98592950 15.67432796
  25.98893578  0.71243418 15.67450367
  18.61170511  4.96147728 15.68189853
  18.61174068  0.68802257 15.68181451
  22.31134978  7.09812017 15.68051844
  22.31139968  2.82456923 15.68049875
  23.55024152  4.95700926 15.68044735
  23.55021299  0.68352766 15.68051326
  25.98902412  7.83441622 12.12866765
  25.98901974  3.56096394 12.12867355
  18.61174382  7.85886795 12.12125828
  18.61178269  3.58545770 12.12119137
  19.84687156  5.72447713 12.12131965
  19.84685190  1.45103911 12.12130555
  23.55030622  7.86334345 12.12257664
  23.55032110  3.58985839 12.12259103
  24.78130001  5.73040688 12.12375301
  24.78133647  1.45686768 12.12373074
  21.07826784  7.86237780 12.12244020
  21.07826453  3.58886620 12.12250589
  22.31145965  5.72224229 12.12254245
  22.31146550  1.44882252 12.12259104
  26.94668305  8.35141330 12.13677184
  26.94675840  4.07788514 12.13693272
  26.94532073  6.87292915 15.66296521
  26.94535372  2.59940866 15.66329284
  26.94537436  5.94749466 12.13982497
  26.94538083  1.67392280 12.14008401
  26.94662322  0.19543346 15.66647852
  26.94666750  4.46901111 15.66603136
  10.27688767  0.19545610 15.66619545
  10.27679702  4.46900585 15.66609839
  10.27813681  1.67395872 12.14050300
  10.27821867  5.94737182 12.13971346
  10.27807451  2.59942401 15.66308949
  10.27816791  6.87307048 15.66299447
  10.27693108  8.35148266 12.13657962
  10.27683332  4.07787220 12.13739924
   9.27813577  2.83137007 13.90122722



--------------------------------------------------------------------------------------------------------


 k-point  1 :   0.0000 0.0000 0.0000  plane waves:  160581
 k-point  2 :   0.0000 0.1250 0.0000  plane waves:  160598
 k-point  3 :   0.0000 0.2500 0.0000  plane waves:  160676
 k-point  4 :   0.0000 0.3750 0.0000  plane waves:  160782
 k-point  5 :   0.0000 0.5000 0.0000  plane waves:  160764

 maximum and minimum number of plane-waves per node :     40304    39998

 maximum number of plane-waves:    160782
 maximum index in each direction: 
   IXMAX=   60   IYMAX=   13   IZMAX=   45
   IXMIN=  -60   IYMIN=  -14   IZMIN=  -45


 real space projection operators:
  total allocation   :       8142.66 KBytes
  max/ min on nodes  :       2037.77       2033.02


 parallel 3D FFT for wavefunctions:
    minimum data exchange during FFTs selected (reduces bandwidth)
 parallel 3D FFT for charge:
    minimum data exchange during FFTs selected (reduces bandwidth)


 total amount of memory used by VASP MPI-rank0   315296. kBytes
=======================================================================

   base      :      30000. kBytes
   nonlr-proj:       4968. kBytes
   fftplans  :      16574. kBytes
   grid      :      43462. kBytes
   one-center:        190. kBytes
   wavefun   :     220102. kBytes

     INWAV:  cpu time    0.0000: real time    0.0000
 Broyden mixing: mesh for mixing (old mesh)
   NGX =121   NGY = 27   NGZ = 91
  (NGX  =384   NGY  = 84   NGZ  =280)
  gives a total of 297297 points

 initial charge density was supplied:
 charge density of overlapping atoms calculated
 number of electron     433.0000000 magnetization     121.0000000
 keeping initial charge density in first step


--------------------------------------------------------------------------------------------------------


 Maximum index for non-local projection operator          295
 Maximum index for augmentation-charges          128 (set IRDMAX)


--------------------------------------------------------------------------------------------------------


 First call to EWALD:  gamma=   0.086
 Maximum number of real-space cells 2x 6x 2
 Maximum number of reciprocal cells 5x 1x 4

    FEWALD:  cpu time    0.0041: real time    0.0042


--------------------------------------- Iteration      1(   1)  ---------------------------------------


    POTLOK:  cpu time    0.3234: real time    0.3299
    SETDIJ:  cpu time    0.0153: real time    0.0156
     EDDAV:  cpu time   42.5904: real time   42.9629
       DOS:  cpu time    0.0013: real time    0.0236
    --------------------------------------------
      LOOP:  cpu time   42.9304: real time   43.3320

 eigenvalue-minimisations  :  8340
 total energy-change (2. order) : 0.3600802E+04  (-0.1290740E+05)
 number of electron     433.0000000 magnetization     121.0000000
 augmentation part      433.0000000 magnetization     121.0000000

 Free energy of the ion-electron system (eV)
  ---------------------------------------------------
  alpha Z        PSCENC =       106.58810953
  Ewald energy   TEWEN  =    182749.21556215
  -Hartree energ DENC   =   -193552.99045711
  -exchange      EXHF   =         0.00000000
  -V(xc)+E(xc)   XCENC  =      1426.65613593
  PAW double counting   =     11309.19404398   -11362.06715896
  entropy T*S    EENTRO =        -0.31587576
  eigenvalues    EBANDS =     -2581.66741378
  atomic energy  EATOM  =     15506.18949415
  Solvation  Ediel_sol  =         0.00000000
  ---------------------------------------------------
  free energy    TOTEN  =      3600.80244013 eV

  energy without entropy =     3601.11831589  energy(sigma->0) =     3600.96037801


--------------------------------------------------------------------------------------------------------




--------------------------------------- Iteration      1(   2)  ---------------------------------------


     EDDAV:  cpu time   51.5709: real time   51.9028
       DOS:  cpu time    0.0009: real time    0.0009
    --------------------------------------------
      LOOP:  cpu time   51.5719: real time   51.9037

 eigenvalue-minimisations  : 10680
 total energy-change (2. order) :-0.3716570E+04  (-0.3361849E+04)
 number of electron     433.0000000 magnetization     121.0000000
 augmentation part      433.0000000 magnetization     121.0000000

 Free energy of the ion-electron system (eV)
  ---------------------------------------------------
  alpha Z        PSCENC =       106.58810953
  Ewald energy   TEWEN  =    182749.21556215
  -Hartree energ DENC   =   -193552.99045711
  -exchange      EXHF   =         0.00000000
  -V(xc)+E(xc)   XCENC  =      1426.65613593
  PAW double counting   =     11309.19404398   -11362.06715896
  entropy T*S    EENTRO =        -0.02179128
  eigenvalues    EBANDS =     -6298.53158585
  atomic energy  EATOM  =     15506.18949415
  Solvation  Ediel_sol  =         0.00000000
  ---------------------------------------------------
  free energy    TOTEN  =      -115.76764746 eV

  energy without entropy =     -115.74585618  energy(sigma->0) =     -115.75675182


--------------------------------------------------------------------------------------------------------




--------------------------------------- Iteration      1(   3)  ---------------------------------------


     EDDAV:  cpu time   45.6756: real time   45.9246
       DOS:  cpu time    0.0010: real time    0.0010
    --------------------------------------------
      LOOP:  cpu time   45.6765: real time   45.9255

 eigenvalue-minimisations  :  9270
 total energy-change (2. order) :-0.8679662E+03  (-0.8641474E+03)
 number of electron     433.0000000 magnetization     121.0000000
 augmentation part      433.0000000 magnetization     121.0000000

 Free energy of the ion-electron system (eV)
  ---------------------------------------------------
  alpha Z        PSCENC =       106.58810953
  Ewald energy   TEWEN  =    182749.21556215
  -Hartree energ DENC   =   -193552.99045711
  -exchange      EXHF   =         0.00000000
  -V(xc)+E(xc)   XCENC  =      1426.65613593
  PAW double counting   =     11309.19404398   -11362.06715896
  entropy T*S    EENTRO =        -0.02644409
  eigenvalues    EBANDS =     -7166.49311620
  atomic energy  EATOM  =     15506.18949415
  Solvation  Ediel_sol  =         0.00000000
  ---------------------------------------------------
  free energy    TOTEN  =      -983.73383062 eV

  energy without entropy =     -983.70738653  energy(sigma->0) =     -983.72060857


--------------------------------------------------------------------------------------------------------




--------------------------------------- Iteration      1(   4)  ---------------------------------------


     EDDAV:  cpu time   44.8691: real time   45.1137
       DOS:  cpu time    0.0010: real time    0.0010
    --------------------------------------------
      LOOP:  cpu time   44.8701: real time   45.1147

 eigenvalue-minimisations  :  9080
 total energy-change (2. order) :-0.3605416E+02  (-0.3587566E+02)
 number of electron     433.0000000 magnetization     121.0000000
 augmentation part      433.0000000 magnetization     121.0000000

 Free energy of the ion-electron system (eV)
  ---------------------------------------------------
  alpha Z        PSCENC =       106.58810953
  Ewald energy   TEWEN  =    182749.21556215
  -Hartree energ DENC   =   -193552.99045711
  -exchange      EXHF   =         0.00000000
  -V(xc)+E(xc)   XCENC  =      1426.65613593
  PAW double counting   =     11309.19404398   -11362.06715896
  entropy T*S    EENTRO =        -0.03323859
  eigenvalues    EBANDS =     -7202.54048566
  atomic energy  EATOM  =     15506.18949415
  Solvation  Ediel_sol  =         0.00000000
  ---------------------------------------------------
  free energy    TOTEN  =     -1019.78799457 eV

  energy without entropy =    -1019.75475599  energy(sigma->0) =    -1019.77137528


--------------------------------------------------------------------------------------------------------




--------------------------------------- Iteration      1(   5)  ---------------------------------------


     EDDAV:  cpu time   47.6111: real time   47.8807
       DOS:  cpu time    0.0010: real time    0.0010
    CHARGE:  cpu time    1.0634: real time    1.1294
    MIXING:  cpu time    0.0059: real time    0.0061
    --------------------------------------------
      LOOP:  cpu time   48.6814: real time   49.0172

 eigenvalue-minimisations  :  9770
 total energy-change (2. order) :-0.8336074E+00  (-0.8315399E+00)
 number of electron     433.0000259 magnetization     115.7479859
 augmentation part       11.4190072 magnetization     113.4657588

 Broyden mixing:
  rms(total) = 0.70731E+01    rms(broyden)= 0.70711E+01
  rms(prec ) = 0.71502E+01
  weight for this iteration     100.00

 Free energy of the ion-electron system (eV)
  ---------------------------------------------------
  alpha Z        PSCENC =       106.58810953
  Ewald energy   TEWEN  =    182749.21556215
  -Hartree energ DENC   =   -193552.99045711
  -exchange      EXHF   =         0.00000000
  -V(xc)+E(xc)   XCENC  =      1426.65613593
  PAW double counting   =     11309.19404398   -11362.06715896
  entropy T*S    EENTRO =        -0.03334747
  eigenvalues    EBANDS =     -7203.37398416
  atomic energy  EATOM  =     15506.18949415
  Solvation  Ediel_sol  =         0.00000000
  ---------------------------------------------------
  free energy    TOTEN  =     -1020.62160197 eV

  energy without entropy =    -1020.58825450  energy(sigma->0) =    -1020.60492823


--------------------------------------------------------------------------------------------------------




--------------------------------------- Iteration      1(   6)  ---------------------------------------


    POTLOK:  cpu time    0.2501: real time    0.2513
    SETDIJ:  cpu time    0.0151: real time    0.0152
     EDDAV:  cpu time   39.6097: real time   39.8456
       DOS:  cpu time    0.0012: real time    0.0012
    CHARGE:  cpu time    1.0478: real time    1.0529
    MIXING:  cpu time    0.0067: real time    0.2014
    --------------------------------------------
      LOOP:  cpu time   40.9305: real time   41.3675

 eigenvalue-minimisations  :  7730
 total energy-change (2. order) : 0.3745635E+03  (-0.6419462E+02)
 number of electron     433.0000264 magnetization     109.6847810
 augmentation part       11.3045396 magnetization     105.1061383

 Broyden mixing:
  rms(total) = 0.41842E+01    rms(broyden)= 0.41836E+01
  rms(prec ) = 0.42408E+01
  weight for this iteration     100.00

 eigenvalues of (default mixing * dielectric matrix)
  average eigenvalue GAMMA=   0.9963
  0.9963

 Free energy of the ion-electron system (eV)
  ---------------------------------------------------
  alpha Z        PSCENC =       106.58810953
  Ewald energy   TEWEN  =    182749.21556215
  -Hartree energ DENC   =   -194319.78981061
  -exchange      EXHF   =         0.00000000
  -V(xc)+E(xc)   XCENC  =      1695.64435582
  PAW double counting   =     21048.15367561   -21109.72296638
  entropy T*S    EENTRO =        -0.04938025
  eigenvalues    EBANDS =     -6322.28716093
  atomic energy  EATOM  =     15506.18949415
  Solvation  Ediel_sol  =         0.00000000
  ---------------------------------------------------
  free energy    TOTEN  =      -646.05812091 eV

  energy without entropy =     -646.00874066  energy(sigma->0) =     -646.03343079


--------------------------------------------------------------------------------------------------------




--------------------------------------- Iteration      1(   7)  ---------------------------------------


    POTLOK:  cpu time    0.2420: real time    0.2432
    SETDIJ:  cpu time    0.0153: real time    0.0154
     EDDAV:  cpu time   40.6404: real time   40.8664
       DOS:  cpu time    0.0012: real time    0.0012
    CHARGE:  cpu time    1.0381: real time    1.0431
    MIXING:  cpu time    0.0064: real time    0.0064
    --------------------------------------------
      LOOP:  cpu time   41.9434: real time   42.1757

 eigenvalue-minimisations  :  8040
 total energy-change (2. order) :-0.4853711E+02  (-0.7212619E+01)
 number of electron     433.0000253 magnetization     101.0122792
 augmentation part       10.9819441 magnetization      96.5354719

 Broyden mixing:
  rms(total) = 0.29161E+01    rms(broyden)= 0.29158E+01
  rms(prec ) = 0.29343E+01
  weight for this iteration     100.00

 eigenvalues of (default mixing * dielectric matrix)
  average eigenvalue GAMMA=   1.2536
  0.8047  1.7024

 Free energy of the ion-electron system (eV)
  ---------------------------------------------------
  alpha Z        PSCENC =       106.58810953
  Ewald energy   TEWEN  =    182749.21556215
  -Hartree energ DENC   =   -195044.12570512
  -exchange      EXHF   =         0.00000000
  -V(xc)+E(xc)   XCENC  =      1661.84813061
  PAW double counting   =     31296.05670741   -31362.61522427
  entropy T*S    EENTRO =        -0.04223735
  eigenvalues    EBANDS =     -5607.71006487
  atomic energy  EATOM  =     15506.18949415
  Solvation  Ediel_sol  =         0.00000000
  ---------------------------------------------------
  free energy    TOTEN  =      -694.59522776 eV

  energy without entropy =     -694.55299041  energy(sigma->0) =     -694.57410908


--------------------------------------------------------------------------------------------------------




--------------------------------------- Iteration      1(   8)  ---------------------------------------


    POTLOK:  cpu time    0.2382: real time    0.2394
    SETDIJ:  cpu time    0.0150: real time    0.0150
     EDDAV:  cpu time   40.2227: real time   40.4502
       DOS:  cpu time    0.0010: real time    0.0010
    CHARGE:  cpu time    1.0220: real time    1.0273
    MIXING:  cpu time    0.0065: real time    0.0065
    --------------------------------------------
      LOOP:  cpu time   41.5053: real time   41.7394

 eigenvalue-minimisations  :  7920
 total energy-change (2. order) :-0.4321035E+02  (-0.4125436E+01)
 number of electron     433.0000240 magnetization      94.6295216
 augmentation part       10.5688875 magnetization      89.9082749

 Broyden mixing:
  rms(total) = 0.20336E+01    rms(broyden)= 0.20334E+01
  rms(prec ) = 0.20393E+01
  weight for this iteration     100.00

 eigenvalues of (default mixing * dielectric matrix)
  average eigenvalue GAMMA=   1.3474
  2.3525  1.0053  0.6845

 Free energy of the ion-electron system (eV)
  ---------------------------------------------------
  alpha Z        PSCENC =       106.58810953
  Ewald energy   TEWEN  =    182749.21556215
  -Hartree energ DENC   =   -195677.73160426
  -exchange      EXHF   =         0.00000000
  -V(xc)+E(xc)   XCENC  =      1650.99772457
  PAW double counting   =     43231.17628165   -43300.18107023
  entropy T*S    EENTRO =        -0.04259388
  eigenvalues    EBANDS =     -5004.01748152
  atomic energy  EATOM  =     15506.18949415
  Solvation  Ediel_sol  =         0.00000000
  ---------------------------------------------------
  free energy    TOTEN  =      -737.80557784 eV

  energy without entropy =     -737.76298395  energy(sigma->0) =     -737.78428090


--------------------------------------------------------------------------------------------------------




--------------------------------------- Iteration      1(   9)  ---------------------------------------


    POTLOK:  cpu time    0.2379: real time    0.2391
    SETDIJ:  cpu time    0.0152: real time    0.0153
     EDDAV:  cpu time   40.0723: real time   40.2975
       DOS:  cpu time    0.0012: real time    0.0012
    CHARGE:  cpu time    1.0265: real time    1.0319
    MIXING:  cpu time    0.0070: real time    0.0071
    --------------------------------------------
      LOOP:  cpu time   41.3601: real time   41.5919

 eigenvalue-minimisations  :  7950
 total energy-change (2. order) :-0.4367328E+02  (-0.1162221E+01)
 number of electron     433.0000238 magnetization      84.2842925
 augmentation part       10.4809862 magnetization      80.7376276

 Broyden mixing:
  rms(total) = 0.17023E+01    rms(broyden)= 0.17022E+01
  rms(prec ) = 0.17061E+01
  weight for this iteration     100.00

 eigenvalues of (default mixing * dielectric matrix)
  average eigenvalue GAMMA=   1.4129
  2.6102  1.5364  0.8502  0.6549

 Free energy of the ion-electron system (eV)
  ---------------------------------------------------
  alpha Z        PSCENC =       106.58810953
  Ewald energy   TEWEN  =    182749.21556215
  -Hartree energ DENC   =   -195761.99601508
  -exchange      EXHF   =         0.00000000
  -V(xc)+E(xc)   XCENC  =      1628.38516022
  PAW double counting   =     46876.08870289   -46944.66459759
  entropy T*S    EENTRO =        -0.03346247
  eigenvalues    EBANDS =     -4941.25181326
  atomic energy  EATOM  =     15506.18949415
  Solvation  Ediel_sol  =         0.00000000
  ---------------------------------------------------
  free energy    TOTEN  =      -781.47885946 eV

  energy without entropy =     -781.44539700  energy(sigma->0) =     -781.46212823


--------------------------------------------------------------------------------------------------------




--------------------------------------- Iteration      1(  10)  ---------------------------------------


    POTLOK:  cpu time    0.2392: real time    0.2404
    SETDIJ:  cpu time    0.0149: real time    0.0149
     EDDAV:  cpu time   38.5164: real time   38.7380
       DOS:  cpu time    0.0014: real time    0.0014
    CHARGE:  cpu time    1.0231: real time    1.0281
    MIXING:  cpu time    0.0070: real time    0.0070
    --------------------------------------------
      LOOP:  cpu time   39.8018: real time   40.0298

 eigenvalue-minimisations  :  7520
 total energy-change (2. order) :-0.7165906E+02  (-0.3342326E+01)
 number of electron     433.0000236 magnetization      74.1327836
 augmentation part       10.4629512 magnetization      72.5425905

 Broyden mixing:
  rms(total) = 0.13639E+01    rms(broyden)= 0.13638E+01
  rms(prec ) = 0.13679E+01
  weight for this iteration     100.00

 eigenvalues of (default mixing * dielectric matrix)
  average eigenvalue GAMMA=   1.5066
  2.9494  2.1805  0.9542  0.8292  0.6195

 Free energy of the ion-electron system (eV)
  ---------------------------------------------------
  alpha Z        PSCENC =       106.58810953
  Ewald energy   TEWEN  =    182749.21556215
  -Hartree energ DENC   =   -195770.29586850
  -exchange      EXHF   =         0.00000000
  -V(xc)+E(xc)   XCENC  =      1584.93040575
  PAW double counting   =     48507.21075494   -48573.08416607
  entropy T*S    EENTRO =        -0.04170918
  eigenvalues    EBANDS =     -4963.85050139
  atomic energy  EATOM  =     15506.18949415
  Solvation  Ediel_sol  =         0.00000000
  ---------------------------------------------------
  free energy    TOTEN  =      -853.13791861 eV

  energy without entropy =     -853.09620943  energy(sigma->0) =     -853.11706402


--------------------------------------------------------------------------------------------------------




--------------------------------------- Iteration      1(  11)  ---------------------------------------


    POTLOK:  cpu time    0.2461: real time    0.2473
    SETDIJ:  cpu time    0.0147: real time    0.0147
     EDDAV:  cpu time   38.6317: real time   38.8577
       DOS:  cpu time    0.0015: real time    0.0015
    CHARGE:  cpu time    1.0147: real time    1.0203
    MIXING:  cpu time    0.0071: real time    0.0072
    --------------------------------------------
      LOOP:  cpu time   39.9157: real time   40.1486

 eigenvalue-minimisations  :  7560
 total energy-change (2. order) :-0.5301094E+02  (-0.2488973E+01)
 number of electron     433.0000231 magnetization      59.8663059
 augmentation part       10.3759143 magnetization      58.4715768

 Broyden mixing:
  rms(total) = 0.10878E+01    rms(broyden)= 0.10877E+01
  rms(prec ) = 0.10892E+01
  weight for this iteration     100.00

 eigenvalues of (default mixing * dielectric matrix)
  average eigenvalue GAMMA=   1.6517
  3.8829  2.4933  1.2422  0.9604  0.7186  0.6126

 Free energy of the ion-electron system (eV)
  ---------------------------------------------------
  alpha Z        PSCENC =       106.58810953
  Ewald energy   TEWEN  =    182749.21556215
  -Hartree energ DENC   =   -195862.44392245
  -exchange      EXHF   =         0.00000000
  -V(xc)+E(xc)   XCENC  =      1552.09301856
  PAW double counting   =     48357.24748532   -48422.29195082
  entropy T*S    EENTRO =        -0.02619960
  eigenvalues    EBANDS =     -4892.72045103
  atomic energy  EATOM  =     15506.18949415
  Solvation  Ediel_sol  =         0.00000000
  ---------------------------------------------------
  free energy    TOTEN  =      -906.14885419 eV

  energy without entropy =     -906.12265459  energy(sigma->0) =     -906.13575439


--------------------------------------------------------------------------------------------------------




--------------------------------------- Iteration      1(  12)  ---------------------------------------


    POTLOK:  cpu time    0.2453: real time    0.2465
    SETDIJ:  cpu time    0.0148: real time    0.0149
     EDDAV:  cpu time   48.8858: real time   49.1649
       DOS:  cpu time    0.0012: real time    0.0012
    CHARGE:  cpu time    1.0230: real time    1.0285
    MIXING:  cpu time    0.0071: real time    0.0072
    --------------------------------------------
      LOOP:  cpu time   50.1773: real time   50.4632

 eigenvalue-minimisations  : 10080
 total energy-change (2. order) :-0.2462685E+04  (-0.2006359E+04)
 number of electron     433.0000219 magnetization      59.6197631
 augmentation part       10.3969124 magnetization      59.0730305

 Broyden mixing:
  rms(total) = 0.54525E+01    rms(broyden)= 0.54478E+01
  rms(prec ) = 0.55339E+01
  weight for this iteration     100.00

 eigenvalues of (default mixing * dielectric matrix)
  average eigenvalue GAMMA=   1.4233
  3.9064  2.5023  1.2454  0.9645  0.7186  0.6130  0.0130

 Free energy of the ion-electron system (eV)
  ---------------------------------------------------
  alpha Z        PSCENC =       106.58810953
  Ewald energy   TEWEN  =    182749.21556215
  -Hartree energ DENC   =   -195891.26587821
  -exchange      EXHF   =         0.00000000
  -V(xc)+E(xc)   XCENC  =      1515.99330948
  PAW double counting   =     46276.60978315   -46365.24972012
  entropy T*S    EENTRO =        -0.03091116
  eigenvalues    EBANDS =     -7266.88341146
  atomic energy  EATOM  =     15506.18949415
  Solvation  Ediel_sol  =         0.00000000
  ---------------------------------------------------
  free energy    TOTEN  =     -3368.83366249 eV

  energy without entropy =    -3368.80275133  energy(sigma->0) =    -3368.81820691


--------------------------------------------------------------------------------------------------------




--------------------------------------- Iteration      1(  13)  ---------------------------------------


    POTLOK:  cpu time    0.2520: real time    0.2533
    SETDIJ:  cpu time    0.0147: real time    0.0148
     EDDAV:  cpu time   40.5713: real time   40.8096
       DOS:  cpu time    0.0015: real time    0.0015
    CHARGE:  cpu time    1.0105: real time    1.0158
    MIXING:  cpu time    0.0086: real time    0.1332
    --------------------------------------------
      LOOP:  cpu time   41.8586: real time   42.2282

 eigenvalue-minimisations  :  8120
 total energy-change (2. order) : 0.2422704E+04  (-0.1641767E+03)
 number of electron     433.0000226 magnetization      49.2434934
 augmentation part       10.1888088 magnetization      47.7641868

 Broyden mixing:
  rms(total) = 0.77588E+00    rms(broyden)= 0.75501E+00
  rms(prec ) = 0.75855E+00
  weight for this iteration     100.00

 eigenvalues of (default mixing * dielectric matrix)
  average eigenvalue GAMMA=   1.6624
  6.0566  2.6375  1.3221  1.2257  0.7344  0.7344  0.5697  0.0186

 Free energy of the ion-electron system (eV)
  ---------------------------------------------------
  alpha Z        PSCENC =       106.58810953
  Ewald energy   TEWEN  =    182749.21556215
  -Hartree energ DENC   =   -195882.37962191
  -exchange      EXHF   =         0.00000000
  -V(xc)+E(xc)   XCENC  =      1522.11801595
  PAW double counting   =     46229.13841942   -46293.71022284
  entropy T*S    EENTRO =        -0.03630560
  eigenvalues    EBANDS =     -4883.25345480
  atomic energy  EATOM  =     15506.18949415
  Solvation  Ediel_sol  =         0.00000000
  ---------------------------------------------------
  free energy    TOTEN  =      -946.13000395 eV

  energy without entropy =     -946.09369835  energy(sigma->0) =     -946.11185115


--------------------------------------------------------------------------------------------------------




--------------------------------------- Iteration      1(  14)  ---------------------------------------


    POTLOK:  cpu time    0.2447: real time    0.2459
    SETDIJ:  cpu time    0.0142: real time    0.0142
     EDDAV:  cpu time   40.7907: real time   41.0410
       DOS:  cpu time    0.0014: real time    0.0014
    CHARGE:  cpu time    1.0299: real time    1.0353
    MIXING:  cpu time    0.0077: real time    0.0077
    --------------------------------------------
      LOOP:  cpu time   42.0885: real time   42.3455

 eigenvalue-minimisations  :  8220
 total energy-change (2. order) :-0.3558485E+02  (-0.9911681E+01)
 number of electron     433.0000226 magnetization      43.9021276
 augmentation part       10.2769670 magnetization      43.4226657

 Broyden mixing:
  rms(total) = 0.65645E+00    rms(broyden)= 0.65523E+00
  rms(prec ) = 0.66324E+00
  weight for this iteration     100.00

 eigenvalues of (default mixing * dielectric matrix)
  average eigenvalue GAMMA=   1.7978
  7.8986  2.5835  1.9130  1.0800  0.8553  0.7041  0.6321  0.4953  0.0187

 Free energy of the ion-electron system (eV)
  ---------------------------------------------------
  alpha Z        PSCENC =       106.58810953
  Ewald energy   TEWEN  =    182749.21556215
  -Hartree energ DENC   =   -195812.04110861
  -exchange      EXHF   =         0.00000000
  -V(xc)+E(xc)   XCENC  =      1502.35560135
  PAW double counting   =     44990.13557429   -45054.31406206
  entropy T*S    EENTRO =        -0.04344056
  eigenvalues    EBANDS =     -4969.80058541
  atomic energy  EATOM  =     15506.18949415
  Solvation  Ediel_sol  =         0.00000000
  ---------------------------------------------------
  free energy    TOTEN  =      -981.71485517 eV

  energy without entropy =     -981.67141461  energy(sigma->0) =     -981.69313489


--------------------------------------------------------------------------------------------------------




--------------------------------------- Iteration      1(  15)  ---------------------------------------


    POTLOK:  cpu time    0.2441: real time    0.2454
    SETDIJ:  cpu time    0.0149: real time    0.0150
     EDDAV:  cpu time   40.5475: real time   40.7987
       DOS:  cpu time    0.0014: real time    0.0014
    CHARGE:  cpu time    1.0089: real time    1.0143
    MIXING:  cpu time    0.0078: real time    0.0079
    --------------------------------------------
      LOOP:  cpu time   41.8247: real time   42.0827

 eigenvalue-minimisations  :  8120
 total energy-change (2. order) :-0.8918302E+01  (-0.7138420E+00)
 number of electron     433.0000224 magnetization      37.1818763
 augmentation part       10.2439044 magnetization      36.3880648

 Broyden mixing:
  rms(total) = 0.51616E+00    rms(broyden)= 0.51604E+00
  rms(prec ) = 0.51831E+00
  weight for this iteration     100.00

 eigenvalues of (default mixing * dielectric matrix)
  average eigenvalue GAMMA=   1.8924
  9.1565  2.5065  2.5065  1.0696  1.0696  0.6469  0.6469  0.6513  0.6513  0.0187

 Free energy of the ion-electron system (eV)
  ---------------------------------------------------
  alpha Z        PSCENC =       106.58810953
  Ewald energy   TEWEN  =    182749.21556215
  -Hartree energ DENC   =   -195832.31954147
  -exchange      EXHF   =         0.00000000
  -V(xc)+E(xc)   XCENC  =      1494.74675692
  PAW double counting   =     44685.51776773   -44750.33087621
  entropy T*S    EENTRO =        -0.03489448
  eigenvalues    EBANDS =     -4950.20553592
  atomic energy  EATOM  =     15506.18949415
  Solvation  Ediel_sol  =         0.00000000
  ---------------------------------------------------
  free energy    TOTEN  =      -990.63315760 eV

  energy without entropy =     -990.59826312  energy(sigma->0) =     -990.61571036


--------------------------------------------------------------------------------------------------------




--------------------------------------- Iteration      1(  16)  ---------------------------------------


    POTLOK:  cpu time    0.2457: real time    0.2470
    SETDIJ:  cpu time    0.0141: real time    0.0142
     EDDAV:  cpu time   38.5276: real time   38.7652
       DOS:  cpu time    0.0014: real time    0.0014
    CHARGE:  cpu time    1.0181: real time    1.0226
    MIXING:  cpu time    0.0080: real time    0.0195
    --------------------------------------------
      LOOP:  cpu time   39.8149: real time   40.0698

 eigenvalue-minimisations  :  7620
 total energy-change (2. order) :-0.3447034E+01  (-0.9978740E-01)
 number of electron     433.0000224 magnetization      31.5525766
 augmentation part       10.2388055 magnetization      30.9509356

 Broyden mixing:
  rms(total) = 0.42700E+00    rms(broyden)= 0.42699E+00
  rms(prec ) = 0.42868E+00
  weight for this iteration     100.00

 eigenvalues of (default mixing * dielectric matrix)
  average eigenvalue GAMMA=   1.9494
 10.1924  2.6771  2.6771  1.1523  1.1523  0.9941  0.7223  0.6206  0.6180  0.6180
  0.0187

 Free energy of the ion-electron system (eV)
  ---------------------------------------------------
  alpha Z        PSCENC =       106.58810953
  Ewald energy   TEWEN  =    182749.21556215
  -Hartree energ DENC   =   -195793.98040869
  -exchange      EXHF   =         0.00000000
  -V(xc)+E(xc)   XCENC  =      1491.25845287
  PAW double counting   =     44422.95718609   -44488.36344875
  entropy T*S    EENTRO =        -0.04421503
  eigenvalues    EBANDS =     -4987.90092345
  atomic energy  EATOM  =     15506.18949415
  Solvation  Ediel_sol  =         0.00000000
  ---------------------------------------------------
  free energy    TOTEN  =      -994.08019114 eV

  energy without entropy =     -994.03597611  energy(sigma->0) =     -994.05808363


--------------------------------------------------------------------------------------------------------




--------------------------------------- Iteration      1(  17)  ---------------------------------------


    POTLOK:  cpu time    0.2467: real time    0.2478
    SETDIJ:  cpu time    0.0140: real time    0.0141
     EDDAV:  cpu time   39.1355: real time   39.3433
       DOS:  cpu time    0.0013: real time    0.0013
    CHARGE:  cpu time    1.0173: real time    1.0218
    MIXING:  cpu time    0.0086: real time    0.0086
    --------------------------------------------
      LOOP:  cpu time   40.4233: real time   40.6368

 eigenvalue-minimisations  :  7800
 total energy-change (2. order) :-0.3508321E+01  (-0.3513460E-01)
 number of electron     433.0000224 magnetization      23.6668043
 augmentation part       10.2416182 magnetization      23.1472786

 Broyden mixing:
  rms(total) = 0.37858E+00    rms(broyden)= 0.37857E+00
  rms(prec ) = 0.38004E+00
  weight for this iteration     100.00

 eigenvalues of (default mixing * dielectric matrix)
  average eigenvalue GAMMA=   1.9794
 10.7170  2.8330  2.8330  1.7887  1.0742  1.0742  0.8434  0.6928  0.6374  0.6374
  0.6028  0.0187

 Free energy of the ion-electron system (eV)
  ---------------------------------------------------
  alpha Z        PSCENC =       106.58810953
  Ewald energy   TEWEN  =    182749.21556215
  -Hartree energ DENC   =   -195756.42737452
  -exchange      EXHF   =         0.00000000
  -V(xc)+E(xc)   XCENC  =      1487.24934973
  PAW double counting   =     44296.15206090   -44361.58757102
  entropy T*S    EENTRO =        -0.04666702
  eigenvalues    EBANDS =     -5024.92147654
  atomic energy  EATOM  =     15506.18949415
  Solvation  Ediel_sol  =         0.00000000
  ---------------------------------------------------
  free energy    TOTEN  =      -997.58851264 eV

  energy without entropy =     -997.54184562  energy(sigma->0) =     -997.56517913


--------------------------------------------------------------------------------------------------------




--------------------------------------- Iteration      1(  18)  ---------------------------------------


    POTLOK:  cpu time    0.2464: real time    0.2477
    SETDIJ:  cpu time    0.0146: real time    0.0147
     EDDAV:  cpu time   38.0046: real time   38.2104
       DOS:  cpu time    0.0016: real time    0.0017
    CHARGE:  cpu time    1.0209: real time    1.0254
    MIXING:  cpu time    0.0093: real time    0.0094
    --------------------------------------------
      LOOP:  cpu time   39.2974: real time   39.5092

 eigenvalue-minimisations  :  7510
 total energy-change (2. order) :-0.4103675E+01  (-0.5022406E-01)
 number of electron     433.0000224 magnetization      13.1779163
 augmentation part       10.2360490 magnetization      12.6036072

 Broyden mixing:
  rms(total) = 0.30118E+00    rms(broyden)= 0.30118E+00
  rms(prec ) = 0.30215E+00
  weight for this iteration     100.00

 eigenvalues of (default mixing * dielectric matrix)
  average eigenvalue GAMMA=   2.1169
 11.4619  4.4196  2.4728  2.4728  1.1544  1.1544  1.0301  0.8150  0.6295  0.6295
  0.6568  0.6044  0.0187

 Free energy of the ion-electron system (eV)
  ---------------------------------------------------
  alpha Z        PSCENC =       106.58810953
  Ewald energy   TEWEN  =    182749.21556215
  -Hartree energ DENC   =   -195704.50091819
  -exchange      EXHF   =         0.00000000
  -V(xc)+E(xc)   XCENC  =      1482.96138419
  PAW double counting   =     44474.79080129   -44540.20050657
  entropy T*S    EENTRO =        -0.04455025
  eigenvalues    EBANDS =     -5076.69156415
  atomic energy  EATOM  =     15506.18949415
  Solvation  Ediel_sol  =         0.00000000
  ---------------------------------------------------
  free energy    TOTEN  =     -1001.69218784 eV

  energy without entropy =    -1001.64763760  energy(sigma->0) =    -1001.66991272


--------------------------------------------------------------------------------------------------------




--------------------------------------- Iteration      1(  19)  ---------------------------------------


    POTLOK:  cpu time    0.2438: real time    0.2473
    SETDIJ:  cpu time    0.0148: real time    0.0149
     EDDAV:  cpu time   38.8452: real time   39.0453
       DOS:  cpu time    0.0012: real time    0.0012
    CHARGE:  cpu time    1.0295: real time    1.0338
    MIXING:  cpu time    0.0094: real time    0.0095
    --------------------------------------------
      LOOP:  cpu time   40.1439: real time   40.3519

 eigenvalue-minimisations  :  7650
 total energy-change (2. order) :-0.4025512E+01  (-0.4123755E-01)
 number of electron     433.0000224 magnetization       6.8463492
 augmentation part       10.2326808 magnetization       6.2175563

 Broyden mixing:
  rms(total) = 0.20580E+00    rms(broyden)= 0.20580E+00
  rms(prec ) = 0.20739E+00
  weight for this iteration     100.00

 eigenvalues of (default mixing * dielectric matrix)
  average eigenvalue GAMMA=   2.3222
 12.8681  6.5395  2.5950  2.5950  1.4234  1.1433  1.1433  0.9221  0.7444  0.6409
  0.6409  0.6205  0.6154  0.0187

 Free energy of the ion-electron system (eV)
  ---------------------------------------------------
  alpha Z        PSCENC =       106.58810953
  Ewald energy   TEWEN  =    182749.21556215
  -Hartree energ DENC   =   -195636.87787503
  -exchange      EXHF   =         0.00000000
  -V(xc)+E(xc)   XCENC  =      1478.55964833
  PAW double counting   =     44646.86512900   -44712.24017883
  entropy T*S    EENTRO =        -0.04069511
  eigenvalues    EBANDS =     -5143.97689423
  atomic energy  EATOM  =     15506.18949415
  Solvation  Ediel_sol  =         0.00000000
  ---------------------------------------------------
  free energy    TOTEN  =     -1005.71770004 eV

  energy without entropy =    -1005.67700493  energy(sigma->0) =    -1005.69735248


--------------------------------------------------------------------------------------------------------




--------------------------------------- Iteration      1(  20)  ---------------------------------------


    POTLOK:  cpu time    0.2478: real time    0.2489
    SETDIJ:  cpu time    0.0144: real time    0.0145
     EDDAV:  cpu time   38.4560: real time   38.6499
       DOS:  cpu time    0.0012: real time    0.0012
    CHARGE:  cpu time    1.0147: real time    1.0191
    MIXING:  cpu time    0.0101: real time    0.0101
    --------------------------------------------
      LOOP:  cpu time   39.7442: real time   39.9436

 eigenvalue-minimisations  :  7600
 total energy-change (2. order) :-0.3175345E+01  (-0.1991249E-01)
 number of electron     433.0000224 magnetization       3.2737855
 augmentation part       10.2419440 magnetization       2.6852202

 Broyden mixing:
  rms(total) = 0.13002E+00    rms(broyden)= 0.13001E+00
  rms(prec ) = 0.13203E+00
  weight for this iteration     100.00

 eigenvalues of (default mixing * dielectric matrix)
  average eigenvalue GAMMA=   2.6187
 16.1826  8.4112  2.7229  2.7229  1.8339  1.1663  1.1663  0.9639  0.8789  0.6414
  0.6414  0.6885  0.6210  0.6210  0.0187

 Free energy of the ion-electron system (eV)
  ---------------------------------------------------
  alpha Z        PSCENC =       106.58810953
  Ewald energy   TEWEN  =    182749.21556215
  -Hartree energ DENC   =   -195605.59755564
  -exchange      EXHF   =         0.00000000
[...]
   -.482E+03 -.942E+01 0.291E+03   0.482E+03 0.947E+01 -.291E+03   -.277E+00 -.649E-01 -.419E-01   0.491E-02 0.226E-03 -.263E-02
   -.482E+03 -.943E+01 0.291E+03   0.482E+03 0.949E+01 -.291E+03   -.276E+00 -.646E-01 -.420E-01   0.496E-02 0.432E-04 -.266E-02
   -.634E+03 0.353E+02 0.245E+03   0.635E+03 -.356E+02 -.245E+03   -.847E+00 0.310E+00 -.465E-01   0.674E-02 -.343E-03 -.206E-02
   -.634E+03 0.352E+02 0.245E+03   0.635E+03 -.356E+02 -.245E+03   -.846E+00 0.311E+00 -.500E-01   0.686E-02 -.446E-03 -.213E-02
   -.104E+01 0.994E+00 0.367E+03   0.113E+01 -.101E+01 -.367E+03   -.840E-01 -.448E-01 -.282E-01   -.313E-02 0.858E-04 -.331E-02
   -.105E+01 0.998E+00 0.367E+03   0.113E+01 -.101E+01 -.367E+03   -.818E-01 -.456E-01 -.298E-01   -.340E-02 -.196E-04 -.333E-02
   -.257E+03 0.160E+01 0.344E+03   0.257E+03 -.161E+01 -.344E+03   -.508E-01 -.346E-01 -.336E-01   0.470E-03 0.962E-05 -.330E-02
   -.257E+03 0.159E+01 0.344E+03   0.257E+03 -.159E+01 -.344E+03   -.487E-01 -.316E-01 -.325E-01   0.420E-03 0.130E-03 -.331E-02
   -.354E+03 0.712E+00 0.323E+03   0.354E+03 -.755E+00 -.323E+03   -.188E+00 0.484E-01 -.404E-01   0.242E-02 -.139E-04 -.305E-02
   -.354E+03 0.707E+00 0.323E+03   0.354E+03 -.750E+00 -.323E+03   -.188E+00 0.492E-01 -.406E-01   0.252E-02 -.222E-03 -.313E-02
   -.814E+02 -.297E+00 -.365E+03   0.814E+02 0.302E+00 0.365E+03   -.794E-01 0.554E-03 0.225E-01   -.188E-02 0.290E-03 0.300E-02
   -.814E+02 -.311E+00 -.365E+03   0.815E+02 0.313E+00 0.365E+03   -.780E-01 0.331E-02 0.229E-01   -.195E-02 -.347E-04 0.299E-02
   -.167E+03 -.946E+00 -.357E+03   0.167E+03 0.927E+00 0.357E+03   -.462E-01 0.718E-02 0.332E-01   -.473E-03 0.420E-03 0.303E-02
   -.167E+03 -.943E+00 -.357E+03   0.167E+03 0.927E+00 0.357E+03   -.457E-01 0.581E-02 0.318E-01   -.692E-03 -.234E-03 0.304E-02
   -.481E+03 -.968E+01 -.291E+03   0.482E+03 0.973E+01 0.291E+03   -.275E+00 -.647E-01 0.522E-01   0.459E-02 0.198E-03 0.248E-02
   -.481E+03 -.968E+01 -.291E+03   0.482E+03 0.973E+01 0.291E+03   -.275E+00 -.655E-01 0.504E-01   0.494E-02 -.903E-04 0.249E-02
   -.634E+03 0.357E+02 -.244E+03   0.635E+03 -.361E+02 0.244E+03   -.843E+00 0.312E+00 0.273E-01   0.642E-02 -.677E-04 0.194E-02
   -.634E+03 0.357E+02 -.244E+03   0.635E+03 -.361E+02 0.244E+03   -.843E+00 0.312E+00 0.287E-01   0.651E-02 -.704E-04 0.188E-02
   -.106E+01 0.975E+00 -.367E+03   0.113E+01 -.999E+00 0.367E+03   -.807E-01 -.435E-01 0.244E-01   -.337E-02 0.262E-03 0.288E-02
   -.105E+01 0.100E+01 -.367E+03   0.112E+01 -.102E+01 0.367E+03   -.814E-01 -.461E-01 0.262E-01   -.326E-02 -.246E-03 0.287E-02
   -.257E+03 0.156E+01 -.344E+03   0.257E+03 -.157E+01 0.344E+03   -.591E-01 -.357E-01 0.259E-01   0.714E-03 -.887E-04 0.294E-02
   -.257E+03 0.154E+01 -.344E+03   0.257E+03 -.155E+01 0.344E+03   -.576E-01 -.341E-01 0.267E-01   0.880E-03 -.123E-03 0.302E-02
   -.354E+03 0.821E+00 -.323E+03   0.354E+03 -.860E+00 0.323E+03   -.186E+00 0.424E-01 0.357E-01   0.269E-02 0.198E-03 0.286E-02
   -.354E+03 0.815E+00 -.323E+03   0.354E+03 -.852E+00 0.323E+03   -.186E+00 0.426E-01 0.353E-01   0.267E-02 -.884E-04 0.279E-02
   -.634E+03 -.357E+02 0.244E+03   0.635E+03 0.361E+02 -.244E+03   -.843E+00 -.311E+00 -.287E-01   0.662E-02 0.451E-03 -.210E-02
   -.634E+03 -.357E+02 0.244E+03   0.635E+03 0.361E+02 -.244E+03   -.843E+00 -.312E+00 -.262E-01   0.683E-02 0.979E-04 -.213E-02
   -.105E+01 -.977E+00 0.367E+03   0.113E+01 0.100E+01 -.367E+03   -.853E-01 0.459E-01 -.273E-01   -.314E-02 0.448E-05 -.328E-02
   -.105E+01 -.989E+00 0.367E+03   0.113E+01 0.101E+01 -.367E+03   -.836E-01 0.460E-01 -.238E-01   -.334E-02 -.612E-04 -.338E-02
   -.814E+02 0.291E+00 0.365E+03   0.815E+02 -.298E+00 -.365E+03   -.831E-01 0.735E-03 -.231E-01   -.190E-02 -.414E-04 -.340E-02
   -.814E+02 0.315E+00 0.365E+03   0.815E+02 -.317E+00 -.365E+03   -.803E-01 -.397E-02 -.228E-01   -.186E-02 -.116E-03 -.342E-02
   -.354E+03 -.822E+00 0.323E+03   0.354E+03 0.862E+00 -.323E+03   -.187E+00 -.425E-01 -.348E-01   0.248E-02 0.158E-03 -.305E-02
   -.354E+03 -.820E+00 0.323E+03   0.354E+03 0.859E+00 -.323E+03   -.187E+00 -.427E-01 -.353E-01   0.248E-02 0.482E-04 -.309E-02
   -.481E+03 0.969E+01 0.291E+03   0.482E+03 -.974E+01 -.291E+03   -.275E+00 0.653E-01 -.518E-01   0.492E-02 -.648E-04 -.263E-02
   -.481E+03 0.968E+01 0.291E+03   0.482E+03 -.972E+01 -.291E+03   -.276E+00 0.671E-01 -.495E-01   0.506E-02 -.121E-03 -.269E-02
   -.167E+03 0.946E+00 0.357E+03   0.167E+03 -.926E+00 -.357E+03   -.472E-01 -.709E-02 -.320E-01   -.817E-03 -.204E-04 -.335E-02
   -.167E+03 0.934E+00 0.357E+03   0.167E+03 -.917E+00 -.357E+03   -.462E-01 -.477E-02 -.334E-01   -.891E-03 -.510E-04 -.347E-02
   -.257E+03 -.155E+01 0.344E+03   0.257E+03 0.156E+01 -.344E+03   -.601E-01 0.374E-01 -.259E-01   0.400E-03 0.379E-04 -.325E-02
   -.257E+03 -.155E+01 0.344E+03   0.257E+03 0.157E+01 -.344E+03   -.583E-01 0.357E-01 -.267E-01   0.419E-03 -.482E-04 -.334E-02
   -.194E+03 -.188E+02 0.498E+02   0.199E+03 0.215E+02 -.498E+02   -.509E+01 -.267E+01 -.420E-01   0.186E-02 0.230E-03 -.401E-03
   -.194E+03 -.188E+02 0.498E+02   0.199E+03 0.215E+02 -.498E+02   -.509E+01 -.267E+01 -.429E-01   0.185E-02 0.129E-03 -.408E-03
   -.194E+03 -.189E+02 -.498E+02   0.199E+03 0.216E+02 0.498E+02   -.509E+01 -.268E+01 0.582E-01   0.183E-02 0.166E-03 0.361E-03
   -.194E+03 -.189E+02 -.498E+02   0.199E+03 0.216E+02 0.498E+02   -.509E+01 -.268E+01 0.572E-01   0.179E-02 0.553E-04 0.354E-03
   -.194E+03 0.189E+02 0.498E+02   0.199E+03 -.216E+02 -.498E+02   -.509E+01 0.268E+01 -.576E-01   0.186E-02 -.172E-03 -.399E-03
   -.194E+03 0.189E+02 0.498E+02   0.199E+03 -.216E+02 -.498E+02   -.509E+01 0.268E+01 -.577E-01   0.181E-02 -.151E-03 -.409E-03
   -.194E+03 0.188E+02 -.498E+02   0.199E+03 -.215E+02 0.498E+02   -.509E+01 0.267E+01 0.416E-01   0.185E-02 -.110E-03 0.347E-03
   -.194E+03 0.188E+02 -.498E+02   0.199E+03 -.215E+02 0.498E+02   -.509E+01 0.267E+01 0.431E-01   0.187E-02 -.158E-03 0.355E-03
   0.194E+03 0.195E+02 -.506E+02   -.199E+03 -.222E+02 0.506E+02   0.506E+01 0.270E+01 0.187E-01   -.346E-02 0.231E-02 -.222E-02
   0.193E+03 0.178E+02 -.511E+02   -.198E+03 -.203E+02 0.513E+02   0.498E+01 0.256E+01 -.529E-01   -.477E-02 -.391E-02 -.445E-02
   0.193E+03 0.198E+02 0.515E+02   -.198E+03 -.228E+02 -.518E+02   0.490E+01 0.275E+01 0.996E-01   -.566E-02 0.340E-02 0.596E-02
   0.194E+03 0.184E+02 0.504E+02   -.199E+03 -.211E+02 -.504E+02   0.507E+01 0.265E+01 -.466E-01   -.318E-02 -.188E-02 0.159E-02
   0.192E+03 -.185E+02 -.522E+02   -.197E+03 0.212E+02 0.528E+02   0.479E+01 -.259E+01 -.255E+00   -.706E-02 0.128E-02 -.841E-02
   0.194E+03 -.190E+02 -.503E+02   -.199E+03 0.217E+02 0.503E+02   0.508E+01 -.268E+01 0.530E-01   -.297E-02 -.114E-03 -.120E-02
   0.194E+03 -.183E+02 0.504E+02   -.199E+03 0.209E+02 -.504E+02   0.506E+01 -.263E+01 -.275E-01   -.318E-02 0.202E-02 0.170E-02
   0.193E+03 -.197E+02 0.514E+02   -.198E+03 0.227E+02 -.517E+02   0.492E+01 -.274E+01 0.946E-01   -.550E-02 -.348E-02 0.567E-02
   0.158E+03 -.635E+00 -.500E+00   -.158E+03 0.630E+00 0.506E+00   0.532E+00 -.340E-01 -.150E+00   -.168E-02 -.406E-05 -.381E-04
 -----------------------------------------------------------------------------------------------
   0.162E+02 -.418E+00 -.197E-01   -.398E-11 -.731E-13 -.127E-12   -.156E+02 0.416E+00 0.367E-01   -.518E+00 0.182E-02 -.153E-01


 POSITION                                       TOTAL-FORCE (eV/Angst)
 -----------------------------------------------------------------------------------
     17.37676      0.02542     12.12144         0.058454      0.006383      0.007533
     17.37681      4.29895     12.12152         0.049882     -0.000862      0.005421
     16.14538      2.16183     12.12266        -0.042851      0.041722     -0.001223
     16.14538      6.43536     12.12268        -0.054897      0.016908     -0.001090
     12.44189      0.02290     12.12382        -0.067800      0.021325     -0.002849
     12.44179      4.29640     12.12399        -0.004872      0.220243      0.035086
     11.23502      2.19232     12.13004         0.157248     -0.016005      0.127107
     11.23508      6.46575     12.12967         0.029260     -0.025567      0.013722
     14.91222      0.02978     12.12315         0.014274     -0.078584      0.004665
     14.91215      4.30324     12.12307         0.011617     -0.056769      0.006454
     13.67327      2.16294     12.12263         0.056588      0.008338     -0.004009
     13.67340      6.43642     12.12256         0.060604     -0.007645      0.002129
     17.37678      8.52144     15.68159         0.048541     -0.000135     -0.006347
     17.37672      4.24800     15.68161         0.047780     -0.004499     -0.006717
     16.14534      2.11159     15.68036        -0.050842     -0.029396      0.001864
     16.14531      6.38504     15.68039        -0.052866     -0.018858      0.001003
     12.44177      8.52402     15.67918        -0.067832     -0.025474      0.023927
     12.44179      4.25057     15.67915        -0.040661     -0.068369     -0.007617
     11.23495      2.08111     15.67333         0.370085     -0.148774     -0.198986
     11.23506      6.35469     15.67319        -0.033586      0.069789     -0.033251
     14.91211      8.51712     15.67991         0.017098      0.074221     -0.008610
     14.91213      4.24367     15.67992         0.012198      0.059066     -0.005419
     13.67320      2.11050     15.68044         0.040126     -0.026907      0.004894
     13.67332      6.38399     15.68044         0.055007      0.002309     -0.004263
     17.37673      1.45102     12.12132         0.036228      0.004829      0.001686
     17.37664      5.72452     12.12131         0.042276      0.000680      0.002370
     16.14524      3.58891     12.12250        -0.052929     -0.030475     -0.004333
     16.14524      7.86239     12.12244        -0.065567     -0.007947     -0.002299
     12.44214      1.45692     12.12388        -0.041845     -0.215899      0.027544
     12.44222      5.73041     12.12371        -0.073434     -0.024838     -0.010243
     11.23450      3.56097     12.12895         0.085810      0.039153      0.120389
     11.23456      7.83444     12.12857         0.025605      0.025664      0.009675
     14.91211      1.44879     12.12253        -0.012918      0.073778      0.003160
     14.91213      5.72230     12.12259        -0.002573      0.086270      0.001432
     13.67309      3.58987     12.12263         0.028538     -0.002221     -0.006068
     13.67320      7.86337     12.12256         0.043213      0.005580      0.000196
     11.23448      0.71249     15.67434        -0.082507     -0.158468     -0.040141
     11.23446      4.98598     15.67435         0.194972      0.017401     -0.056372
     17.37666      2.82247     15.68173         0.034596     -0.004760     -0.001606
     17.37661      7.09587     15.68178         0.041436     -0.000615     -0.002650
     13.67308      0.68360     15.68043         0.046439      0.000684     -0.003107
     13.67309      4.95704     15.68042         0.039372      0.002294      0.001575
     12.44205      2.81653     15.67928        -0.035585      0.232937     -0.025384
     12.44215      7.09003     15.67932        -0.100529     -0.019650      0.022911
     16.14519      0.68455     15.68061        -0.052431      0.018070      0.002944
     16.14519      4.95801     15.68055        -0.056868      0.009294      0.003112
     14.91200      2.82464     15.68050        -0.001481     -0.054545     -0.000583
     14.91208      7.09808     15.68041        -0.001146     -0.087126     -0.001859
     19.84672      8.52144     15.68163        -0.029007     -0.009788     -0.004913
     19.84668      4.24793     15.68157        -0.029093     -0.007986     -0.003957
     21.07811      6.38506     15.68040         0.041409     -0.001185     -0.001300
     21.07810      2.11157     15.68039         0.042735     -0.000551     -0.000992
     24.78151      8.52398     15.67930         0.024921      0.006475     -0.007844
     24.78159      4.25054     15.67913         0.021655      0.006461     -0.006048
     25.98840      6.35459     15.67323        -0.015573      0.019122     -0.006894
     25.98841      2.08115     15.67339        -0.015207      0.014886     -0.006589
     18.61171      6.38266     15.68156         0.000024      0.059043     -0.005054
     18.61170      2.10919     15.68158         0.002945      0.056468     -0.006090
     22.31122      8.51714     15.67992        -0.008053      0.034310     -0.003427
     22.31125      4.24362     15.67997        -0.009284      0.036035     -0.005076
     23.55007      6.38392     15.68049        -0.011683     -0.004072      0.001176
     23.55012      2.11046     15.68052        -0.012336     -0.005819      0.001593
     19.84671      0.02547     12.12147        -0.027423      0.012317      0.004607
     19.84676      4.29892     12.12148        -0.029208      0.010540      0.004466
     21.07819      6.43532     12.12269         0.045956     -0.000894      0.000820
     21.07816      2.16185     12.12266         0.045016     -0.001490      0.001694
     24.78165      0.02288     12.12386         0.023400     -0.008897      0.006921
     24.78163      4.29633     12.12387         0.025506     -0.005242      0.006669
     25.98847      6.46577     12.12967        -0.017265     -0.019874      0.007597
     25.98845      2.19224     12.12990        -0.015102     -0.017562      0.005489
     18.61178      6.43768     12.12148         0.000363     -0.064238      0.006123
     18.61178      2.16424     12.12155         0.002300     -0.056351      0.005089
     22.31131      0.02983     12.12313        -0.009923     -0.041104      0.003962
     22.31130      4.30321     12.12309        -0.008201     -0.037350      0.004845
     23.55017      6.43645     12.12258        -0.011709      0.004329     -0.001680
     23.55018      2.16294     12.12259        -0.011289      0.005520     -0.001852
     19.84680      7.09587     15.68178        -0.037001      0.006373     -0.002984
     19.84678      2.82237     15.68175        -0.038388      0.005243     -0.002592
     21.07824      4.95799     15.68056         0.027551     -0.011198      0.004057
     21.07823      0.68453     15.68063         0.026523     -0.010448      0.002924
     24.78122      7.08995     15.67929         0.016424     -0.014386      0.000727
     24.78126      2.81650     15.67937         0.016183     -0.013716     -0.000694
     25.98896      4.98593     15.67433        -0.010617     -0.025485      0.000015
     25.98894      0.71243     15.67450        -0.011896     -0.024199      0.001090
     18.61171      4.96148     15.68190        -0.006957     -0.067608     -0.000811
     18.61174      0.68802     15.68181        -0.009992     -0.065798      0.000156
     22.31135      7.09812     15.68052        -0.015804     -0.047258     -0.000765
     22.31140      2.82457     15.68050        -0.017019     -0.045351     -0.000373
     23.55024      4.95701     15.68045        -0.011917      0.003082      0.001825
     23.55021      0.68353     15.68051        -0.011627      0.004530      0.001481
     25.98902      7.83442     12.12867        -0.012785      0.027924     -0.001180
     25.98902      3.56096     12.12867        -0.012228      0.025478      0.000339
     18.61174      7.85887     12.12126        -0.013162      0.074624     -0.000728
     18.61178      3.58546     12.12119        -0.011228      0.064385      0.001591
     19.84687      5.72448     12.12132        -0.040979     -0.005898      0.002514
     19.84685      1.45104     12.12131        -0.040006     -0.006568      0.002918
     23.55031      7.86334     12.12258        -0.013199     -0.002535     -0.001356
     23.55032      3.58986     12.12259        -0.014448     -0.003870     -0.001608
     24.78130      5.73041     12.12375         0.017599      0.014560     -0.000640
     24.78134      1.45687     12.12373         0.015756      0.017171      0.001037
     21.07827      7.86238     12.12244         0.030242      0.012378     -0.003098
     21.07826      3.58887     12.12251         0.028983      0.012386     -0.004152
     22.31146      5.72224     12.12254        -0.019005      0.051006      0.000829
     22.31147      1.44882     12.12259        -0.018915      0.049988      0.000105
     26.94668      8.35141     12.13677        -0.001880      0.003261     -0.000619
     26.94676      4.07789     12.13693        -0.003161      0.003285     -0.000831
     26.94532      6.87293     15.66297        -0.002266     -0.003819      0.000979
     26.94535      2.59941     15.66329        -0.001721     -0.003156      0.000839
     26.94537      5.94749     12.13982        -0.000800      0.002624     -0.001064
     26.94538      1.67392     12.14008        -0.001931      0.003744     -0.000776
     26.94662      0.19543     15.66648        -0.002848     -0.002856      0.000458
     26.94667      4.46901     15.66603        -0.002424     -0.003578      0.000820
     10.27689      0.19546     15.66620        -0.034053     -0.043844      0.010900
     10.27680      4.46901     15.66610        -0.153733      0.012690      0.102945
     10.27814      1.67396     12.14050        -0.185785     -0.211782     -0.164687
     10.27822      5.94737     12.13971        -0.036313      0.021113     -0.012211
     10.27807      2.59942     15.66309        -0.237518      0.141054      0.366960
     10.27817      6.87307     15.66299        -0.015438     -0.007565     -0.002036
     10.27693      8.35148     12.13658        -0.039527     -0.016659     -0.017337
     10.27683      4.07787     12.13740        -0.175802      0.205457     -0.151755
      9.27814      2.83137     13.90123         0.416013     -0.030425     -0.128320
 -----------------------------------------------------------------------------------
    total drift:                               -0.003227     -0.000122      0.001672


--------------------------------------------------------------------------------------------------------



  FREE ENERGIE OF THE ION-ELECTRON SYSTEM (eV)
  ---------------------------------------------------
  free  energy   TOTEN  =     -1019.38989349 eV

  energy  without entropy=    -1019.34868702  energy(sigma->0) =    -1019.36929025



--------------------------------------------------------------------------------------------------------


    POTLOK:  cpu time    0.2747: real time    0.2764


--------------------------------------------------------------------------------------------------------


 stress matrix after NEB project (eV)
    -12.75047      0.18370      0.17547
      0.18370      9.93108     -0.28989
      0.17547     -0.28989    -15.53827
  FORCES: max atom, RMS     0.459315    0.106560
  FORCE total and by dimension    1.172159    0.416013
  Stress total and by dimension   22.426229   15.538268
 writing wavefunctions
     LOOP+:  cpu time 1748.8552: real time 1760.3856
    4ORBIT:  cpu time    0.0000: real time    0.0000

 total amount of memory used by VASP MPI-rank0   315296. kBytes
=======================================================================

   base      :      30000. kBytes
   nonlr-proj:       4968. kBytes
   fftplans  :      16574. kBytes
   grid      :      43462. kBytes
   one-center:        190. kBytes
   wavefun   :     220102. kBytes

  
  
 General timing and accounting informations for this job:
 ========================================================
  
                  Total CPU time used (sec):     1786.156
                            User time (sec):     1778.372
                          System time (sec):        7.784
                         Elapsed time (sec):     1800.030
  
                   Maximum memory used (kb):      494264.
                   Average memory used (kb):           0.
  
                          Minor page faults:       602331
                          Major page faults:            2
                 Voluntary context switches:        14257
